LAMMPS (15 Sep 2022)
package gpu 0
package gpu 6
# 3d Lennard-Jones melt

### monodisperse polymer of Binghui paper
#processors 8 1 8
units		lj
atom_style	atomic
atom_modify	map array
boundary p p p
read_restart  restart_file
Reading restart file ...
  restart file = 15 Sep 2022, LAMMPS = 15 Sep 2022
  restoring atom style atomic from restart
  orthogonal box = (4486.6125 426 1121.7302) to (4908.3432 578 1227.1701)
  8 by 2 by 2 MPI processor grid
  restoring pair style table/gpu from restart
  888960 atoms
  read_restart CPU = 0.293 seconds

variable comxG1 equal xlo+(lx*0.500000)
variable comyG1 equal ylo+(ly*0.500000)
variable comzG1 equal zlo+(lz*0.500000)

pair_style table linear 5000

pair_coeff 1 1 table.txt aa_eps_b_10
Reading pair table potential file table.txt with DATE: 2021-11-02
pair_coeff 1 2 table.txt ab_noreact_eps_b_10
Reading pair table potential file table.txt with DATE: 2021-11-02
WARNING: 1 of 500 force values in table ab_noreact_eps_b_10 are inconsistent with -dE/dr.
WARNING:  Should only be flagged at inflection points (src/pair_table.cpp:463)
pair_coeff 2 2 table.txt aa_eps_b_10
Reading pair table potential file table.txt with DATE: 2021-11-02
pair_coeff 3 3 table_g.txt g1g1_eps_10
Reading pair table potential file table_g.txt with DATE: 2022-04-26
WARNING: 1 of 500 force values in table g1g1_eps_10 are inconsistent with -dE/dr.
WARNING:  Should only be flagged at inflection points (src/pair_table.cpp:463)
pair_coeff 3 4 table_g.txt g1g2_eps_10
Reading pair table potential file table_g.txt with DATE: 2022-04-26
WARNING: 2 of 500 force values in table g1g2_eps_10 are inconsistent with -dE/dr.
WARNING:  Should only be flagged at inflection points (src/pair_table.cpp:463)
pair_coeff 4 4 table_g.txt g1g1_eps_10
Reading pair table potential file table_g.txt with DATE: 2022-04-26
WARNING: 1 of 500 force values in table g1g1_eps_10 are inconsistent with -dE/dr.
WARNING:  Should only be flagged at inflection points (src/pair_table.cpp:463)
pair_coeff 5 5 table.txt ll
Reading pair table potential file table.txt with DATE: 2021-11-02
pair_coeff 1 5 table.txt al_repulse
Reading pair table potential file table.txt with DATE: 2021-11-02
pair_coeff 2 5 table.txt bl
Reading pair table potential file table.txt with DATE: 2021-11-02
pair_coeff 1 3 table.txt ag1
Reading pair table potential file table.txt with DATE: 2021-11-02
pair_coeff 1 4 table.txt ag2
Reading pair table potential file table.txt with DATE: 2021-11-02
pair_coeff 2 3 table.txt bg1
Reading pair table potential file table.txt with DATE: 2021-11-02
pair_coeff 2 4 table.txt bg2
Reading pair table potential file table.txt with DATE: 2021-11-02
pair_coeff 6 6 table.txt s1s1
Reading pair table potential file table.txt with DATE: 2021-11-02
pair_coeff 6 7 table.txt s1s2
Reading pair table potential file table.txt with DATE: 2021-11-02
pair_coeff 7 7 table.txt s2s2
Reading pair table potential file table.txt with DATE: 2021-11-02
pair_coeff 3 6 table.txt g1s1
Reading pair table potential file table.txt with DATE: 2021-11-02
pair_coeff 4 7 table.txt g1s2
Reading pair table potential file table.txt with DATE: 2021-11-02
WARNING: 1 of 500 force values in table g1s2 are inconsistent with -dE/dr.
WARNING:  Should only be flagged at inflection points (src/pair_table.cpp:463)
pair_coeff 3 7 table.txt g1s2
Reading pair table potential file table.txt with DATE: 2021-11-02
WARNING: 1 of 500 force values in table g1s2 are inconsistent with -dE/dr.
WARNING:  Should only be flagged at inflection points (src/pair_table.cpp:463)
pair_coeff 4 6 table.txt g2s1
Reading pair table potential file table.txt with DATE: 2021-11-02
WARNING: 1 of 500 force values in table g2s1 are inconsistent with -dE/dr.
WARNING:  Should only be flagged at inflection points (src/pair_table.cpp:463)
pair_coeff 3 5 table.txt aa_eps_b_10
Reading pair table potential file table.txt with DATE: 2021-11-02
pair_coeff 4 5 table.txt aa_eps_b_10
Reading pair table potential file table.txt with DATE: 2021-11-02
pair_coeff 5 6 table.txt ls1
Reading pair table potential file table.txt with DATE: 2021-11-02
pair_coeff 5 7 table.txt ls2
Reading pair table potential file table.txt with DATE: 2021-11-02
pair_coeff 1 6 table.txt as1
Reading pair table potential file table.txt with DATE: 2021-11-02
pair_coeff 1 7 table.txt as2
Reading pair table potential file table.txt with DATE: 2021-11-02
pair_coeff 2 7 table.txt bs2
Reading pair table potential file table.txt with DATE: 2021-11-02
pair_coeff 2 6 table.txt bs1
Reading pair table potential file table.txt with DATE: 2021-11-02
pair_coeff 1 3 table.txt gpol_sigma_1.175_eps_0.0938_bump_6.4
Reading pair table potential file table.txt with DATE: 2021-11-02
WARNING: 2 of 500 force values in table gpol_sigma_1.175_eps_0.0938_bump_6.4 are inconsistent with -dE/dr.
WARNING:  Should only be flagged at inflection points (src/pair_table.cpp:463)
pair_coeff 1 4 table.txt gpol_sigma_1.175_eps_0.0938_bump_6.4
Reading pair table potential file table.txt with DATE: 2021-11-02
WARNING: 2 of 500 force values in table gpol_sigma_1.175_eps_0.0938_bump_6.4 are inconsistent with -dE/dr.
WARNING:  Should only be flagged at inflection points (src/pair_table.cpp:463)

pair_coeff 1 3 table.txt ag1
Reading pair table potential file table.txt with DATE: 2021-11-02
pair_coeff 1 4 table.txt ag2
Reading pair table potential file table.txt with DATE: 2021-11-02

#mass * 1
#write_data temporary_data_file.data nocoeff
#quit

pair_coeff 8 8 table.txt ll
Reading pair table potential file table.txt with DATE: 2021-11-02
pair_coeff 1 8 table.txt al_repulse
Reading pair table potential file table.txt with DATE: 2021-11-02
pair_coeff 2 8 table.txt bl
Reading pair table potential file table.txt with DATE: 2021-11-02
pair_coeff 3 8 table.txt aa_eps_b_10
Reading pair table potential file table.txt with DATE: 2021-11-02
pair_coeff 4 8 table.txt aa_eps_b_10
Reading pair table potential file table.txt with DATE: 2021-11-02
pair_coeff 8 6 table.txt ls1
Reading pair table potential file table.txt with DATE: 2021-11-02
pair_coeff 8 7 table.txt ls2
Reading pair table potential file table.txt with DATE: 2021-11-02
pair_coeff 5 8 table.txt ll
Reading pair table potential file table.txt with DATE: 2021-11-02

##edge  6 is 4 inside graphene. 6 is 3 for others

pair_coeff 1 6 table.txt ag1
Reading pair table potential file table.txt with DATE: 2021-11-02
pair_coeff 2 6 table.txt bg1
Reading pair table potential file table.txt with DATE: 2021-11-02
pair_coeff 3 6 table_g.txt g1g2_eps_10
Reading pair table potential file table_g.txt with DATE: 2022-04-26
WARNING: 2 of 500 force values in table g1g2_eps_10 are inconsistent with -dE/dr.
WARNING:  Should only be flagged at inflection points (src/pair_table.cpp:463)
pair_coeff 4 6 table_g.txt g1g1_eps_10
Reading pair table potential file table_g.txt with DATE: 2022-04-26
WARNING: 1 of 500 force values in table g1g1_eps_10 are inconsistent with -dE/dr.
WARNING:  Should only be flagged at inflection points (src/pair_table.cpp:463)
pair_coeff 5 6 table.txt aa_eps_b_10
Reading pair table potential file table.txt with DATE: 2021-11-02
pair_coeff 6 6 table_g.txt g1g1_eps_10
Reading pair table potential file table_g.txt with DATE: 2022-04-26
WARNING: 1 of 500 force values in table g1g1_eps_10 are inconsistent with -dE/dr.
WARNING:  Should only be flagged at inflection points (src/pair_table.cpp:463)
pair_coeff 6 7 table_g.txt g1g2_eps_10
Reading pair table potential file table_g.txt with DATE: 2022-04-26
WARNING: 2 of 500 force values in table g1g2_eps_10 are inconsistent with -dE/dr.
WARNING:  Should only be flagged at inflection points (src/pair_table.cpp:463)
pair_coeff 6 8 table.txt aa_eps_b_10
Reading pair table potential file table.txt with DATE: 2021-11-02

##edge 7 is 3 inside graphene. 7 is 4 for others
#
pair_coeff 1 7 table.txt ag2
Reading pair table potential file table.txt with DATE: 2021-11-02
pair_coeff 2 7 table.txt bg2
Reading pair table potential file table.txt with DATE: 2021-11-02
pair_coeff 3 7 table_g.txt g1g1_eps_10
Reading pair table potential file table_g.txt with DATE: 2022-04-26
WARNING: 1 of 500 force values in table g1g1_eps_10 are inconsistent with -dE/dr.
WARNING:  Should only be flagged at inflection points (src/pair_table.cpp:463)
pair_coeff 4 7 table_g.txt g1g2_eps_10
Reading pair table potential file table_g.txt with DATE: 2022-04-26
WARNING: 2 of 500 force values in table g1g2_eps_10 are inconsistent with -dE/dr.
WARNING:  Should only be flagged at inflection points (src/pair_table.cpp:463)
pair_coeff 5 7 table.txt aa_eps_b_10
Reading pair table potential file table.txt with DATE: 2021-11-02
pair_coeff 6 7 table_g.txt g1g2_eps_10
Reading pair table potential file table_g.txt with DATE: 2022-04-26
WARNING: 2 of 500 force values in table g1g2_eps_10 are inconsistent with -dE/dr.
WARNING:  Should only be flagged at inflection points (src/pair_table.cpp:463)
pair_coeff 7 7 table_g.txt g1g1_eps_10
Reading pair table potential file table_g.txt with DATE: 2022-04-26
WARNING: 1 of 500 force values in table g1g1_eps_10 are inconsistent with -dE/dr.
WARNING:  Should only be flagged at inflection points (src/pair_table.cpp:463)
pair_coeff 7 8 table.txt aa_eps_b_10
Reading pair table potential file table.txt with DATE: 2021-11-02

pair_coeff 1 1 table.txt aa_eps_b_10
Reading pair table potential file table.txt with DATE: 2021-11-02
pair_coeff 2 2 table.txt aa_eps_b_10
Reading pair table potential file table.txt with DATE: 2021-11-02
pair_coeff 1 2 table.txt ab_noreact_eps_b_10
Reading pair table potential file table.txt with DATE: 2021-11-02
WARNING: 1 of 500 force values in table ab_noreact_eps_b_10 are inconsistent with -dE/dr.
WARNING:  Should only be flagged at inflection points (src/pair_table.cpp:463)
pair_coeff 1 5 table.txt al_attract_eps_b_10
Reading pair table potential file table.txt with DATE: 2021-11-02
WARNING: 2 of 500 force values in table al_attract_eps_b_10 are inconsistent with -dE/dr.
WARNING:  Should only be flagged at inflection points (src/pair_table.cpp:463)
pair_coeff 3 5 table.txt ag2
Reading pair table potential file table.txt with DATE: 2021-11-02
pair_coeff 1 3 table.txt ag2
Reading pair table potential file table.txt with DATE: 2021-11-02
pair_coeff 2 3 table.txt ag2
Reading pair table potential file table.txt with DATE: 2021-11-02

mass * 9.0
mass 3 12
mass 4 12
timestep 0.005

change_box all y delta 0 150
Changing box ...
  orthogonal box = (4486.6125 426 1121.7302) to (4908.3432 728 1227.1701)


variable	t equal 0.25
variable thigh equal 0.35
variable tint equal 0.175
variable tlow equal 0.0115
variable	c equal 2.35
variable	s equal $c/2^(1./6.)
variable	s equal 2.35/2^(1./6.)
variable 	pp equal 0.02

pair_modify shift yes
neighbor	0.3 bin
neigh_modify	every 20 delay 0 check yes
thermo_style    custom step temp press density pe etotal temp vol  pxx pyy pzz pxz lx ly lz enthalpy
thermo		1000

thermo 1000
thermo_style    custom step density temp pe etotal temp vol press pxx pyy pzz pxz lx ly lz enthalpy

group linker type 5
115840 atoms in group linker
compute 1 all coord/atom cutoff 1.7

restart 100000 restart.*
restart 10000 restart.current.1 restart.current.2

comm_style tiled
fix b all balance 5000 1.05 rcb

thermo_style    custom step density temp pe etotal vol press pxx pyy pzz pxz lx ly lz enthalpy
run 0

CITE-CITE-CITE-CITE-CITE-CITE-CITE-CITE-CITE-CITE-CITE-CITE-CITE

Your simulation uses code contributions which should be cited:

- GPU package (short-range, long-range and three-body potentials): doi:10.1016/j.cpc.2010.12.021, doi:10.1016/j.cpc.2011.10.012, doi:10.1016/j.cpc.2013.08.002, doi:10.1016/j.commatsci.2014.10.068, doi:10.1016/j.cpc.2016.10.020, doi:10.3233/APC200086

@Article{Brown11,
 author = {W. M. Brown and P. Wang and S. J. Plimpton and A. N. Tharrington},
 title = {Implementing Molecular Dynamics on Hybrid High Performance Computers---Short Range Forces},
 journal = {Comput.\ Phys.\ Commun.},
 year =    2011,
 volume =  182,
 pages =   {898--911},
 doi =     {10.1016/j.cpc.2010.12.021}
}

@Article{Brown12,
 author = {W. M. Brown and A. Kohlmeyer and S. J. Plimpton and A. N. Tharrington},
 title = {Implementing Molecular Dynamics on Hybrid High Performance Computers - Particle-Particle Particle-Mesh},
 journal = {Comput.\ Phys.\ Commun.},
 year =    2012,
 volume =  183,
 doi =     {10.1016/j.cpc.2011.10.012},
 pages =   {449--459}
}

@Article{Brown13,
 author = {W. M. Brown and Y. Masako},
 title = {Implementing Molecular Dynamics on Hybrid High Performance Computers---Three-Body Potentials},
 journal = {Comput.\ Phys.\ Commun.},
 year =    2013,
 volume =  184,
 pages =   {2785--2793},
 doi =     {10.1016/j.cpc.2013.08.002},
}

@Article{Trung15,
 author = {T. D. Nguyen and S. J. Plimpton},
 title = {Accelerating Dissipative Particle Dynamics Simulations for Soft Matter Systems},
 journal = {Comput.\ Mater.\ Sci.},
 year =    2015,
 doi =     {10.1016/j.commatsci.2014.10.068},
 volume =  100,
 pages =   {173--180}
}

@Article{Trung17,
 author = {T. D. Nguyen},
 title = {{GPU}-Accelerated {T}ersoff Potentials for Massively Parallel
    Molecular Dynamics Simulations},
 journal = {Comput.\ Phys.\ Commun.},
 year =    2017,
 doi =     {10.1016/j.cpc.2016.10.020},
 volume =  212,
 pages =   {113--122}
}

@inproceedings{Nikolskiy19,
 author = {V. Nikolskiy and V. Stegailov},
 title = {{GPU} Acceleration of Four-Site Water Models in {LAMMPS}},
 booktitle = {Proceedings of the International Conference on Parallel
    Computing (ParCo 2019), Prague, Czech Republic},
 doi =     {10.3233/APC200086},
 year =    2019
}

CITE-CITE-CITE-CITE-CITE-CITE-CITE-CITE-CITE-CITE-CITE-CITE-CITE

WARNING: No fixes with time integration, atoms won't move (src/verlet.cpp:60)
Generated 0 of 28 mixed pair_coeff terms from geometric mixing rule
Unused restart file global fix info:
  fix style: nvt/gpu, fix ID: 1
Neighbor list info ...
  update: every = 20 steps, delay = 0 steps, check = yes
  max neighbors/atom: 2000, page size: 100000
  master list distance cutoff = 3.3
  ghost atom cutoff = 3.3
  binsize = 1.65, bins = 256 184 64
  1 neighbor lists, perpetual/occasional/extra = 0 1 0
  (1) compute coord/atom, occasional
      attributes: full, newton off
      pair build: full/bin/atomonly
      stencil: full/bin/3d
      bin: standard
Per MPI rank memory allocation (min/avg/max) = 16.47 | 20.97 | 28.41 Mbytes
   Step        Density          Temp          PotEng         TotEng         Volume         Press           Pxx            Pyy            Pzz            Pxz             Lx             Ly             Lz          Enthalpy   
   5000000   0.59576833     0.062979241    0.039834965    0.13430372     13429113       0.0084178795   0.0085736102   0.008326236    0.0083537923  -8.0062862e-06  421.73074      302            105.43993      0.26146878   
Loop time of 4.8845e-06 on 32 procs for 0 steps with 888960 atoms

93.4% CPU use with 32 MPI tasks x no OpenMP threads

MPI task timing breakdown:
Section |  min time  |  avg time  |  max time  |%varavg| %total
---------------------------------------------------------------
Pair    | 0          | 0          | 0          |   0.0 |  0.00
Neigh   | 0          | 0          | 0          |   0.0 |  0.00
Comm    | 0          | 0          | 0          |   0.0 |  0.00
Output  | 0          | 0          | 0          |   0.0 |  0.00
Modify  | 0          | 0          | 0          |   0.0 |  0.00
Other   |            | 4.884e-06  |            |       |100.00

Nlocal:          27780 ave       27783 max       27778 min
Histogram: 3 0 8 0 13 0 4 0 2 2
Nghost:        9122.25 ave        9411 max        8852 min
Histogram: 5 3 6 2 0 1 1 6 6 2
Neighs:              0 ave           0 max           0 min
Histogram: 32 0 0 0 0 0 0 0 0 0
FullNghs:            0 ave           0 max           0 min
Histogram: 32 0 0 0 0 0 0 0 0 0

Total # of neighbors = 0
Ave neighs/atom = 0
Neighbor list builds = 0
Dangerous builds = 0

group poly type 1 2 5
888960 atoms in group poly

region ywall22 block INF INF 427 429 INF INF side out
fix w2 all wall/region ywall22 lj126 0.5 0.25 1.5

variable zerov atom "c_1<2"

thermo_style    custom step density temp pe etotal vol press pxx pyy pzz pxz lx ly lz enthalpy
run 0
WARNING: No fixes with time integration, atoms won't move (src/verlet.cpp:60)
Generated 0 of 28 mixed pair_coeff terms from geometric mixing rule
Per MPI rank memory allocation (min/avg/max) = 16.47 | 20.97 | 28.41 Mbytes
   Step        Density          Temp          PotEng         TotEng         Volume         Press           Pxx            Pyy            Pzz            Pxz             Lx             Ly             Lz          Enthalpy   
   5000000   0.59576833     0.062979241    0.039834965    0.13430372     13429113       0.0084178795   0.0085736102   0.008326236    0.0083537923  -8.0062862e-06  421.73074      302            105.43993      0.26146878   
Loop time of 6.08547e-06 on 32 procs for 0 steps with 888960 atoms

114.5% CPU use with 32 MPI tasks x no OpenMP threads

MPI task timing breakdown:
Section |  min time  |  avg time  |  max time  |%varavg| %total
---------------------------------------------------------------
Pair    | 0          | 0          | 0          |   0.0 |  0.00
Neigh   | 0          | 0          | 0          |   0.0 |  0.00
Comm    | 0          | 0          | 0          |   0.0 |  0.00
Output  | 0          | 0          | 0          |   0.0 |  0.00
Modify  | 0          | 0          | 0          |   0.0 |  0.00
Other   |            | 6.085e-06  |            |       |100.00

Nlocal:          27780 ave       27783 max       27778 min
Histogram: 3 0 8 0 13 0 4 0 2 2
Nghost:        9122.25 ave        9411 max        8852 min
Histogram: 5 3 6 2 0 1 1 6 6 2
Neighs:              0 ave           0 max           0 min
Histogram: 32 0 0 0 0 0 0 0 0 0
FullNghs:            0 ave           0 max           0 min
Histogram: 32 0 0 0 0 0 0 0 0 0

Total # of neighbors = 0
Ave neighs/atom = 0
Neighbor list builds = 0
Dangerous builds = 0
compute k all ke/atom
compute p all pe/atom

variable tmr timer
variable SEED equal ceil(${tmr}*10000000)
variable SEED equal ceil(11.680415149*10000000)
variable rand1 equal ceil(random(100000,10000000,${SEED}))
variable rand1 equal ceil(random(100000,10000000,116804152))

dump dump_geo all  custom 50000 dump_relax_process id type x y z c_k c_p
write_data before_impact_test
System init for write_data ...
Generated 0 of 28 mixed pair_coeff terms from geometric mixing rule
#fix r ball rigid single
write_restart  restart_swelled
System init for write_restart ...
Generated 0 of 28 mixed pair_coeff terms from geometric mixing rule

fix             1 all nvt temp ${tlow} ${tlow} 0.1
fix             1 all nvt temp 0.0115 ${tlow} 0.1
fix             1 all nvt temp 0.0115 0.0115 0.1
run 2000000  every 10000 "group zerog variable zerov" "group todel intersect linker zerog" "delete_atoms group todel" "group zerog delete" "group todel delete" "velocity all create ${tlow} ${rand1}"
Generated 0 of 28 mixed pair_coeff terms from geometric mixing rule
Per MPI rank memory allocation (min/avg/max) = 22.6 | 27.4 | 35.16 Mbytes
   Step        Density          Temp          PotEng         TotEng         Volume         Press           Pxx            Pyy            Pzz            Pxz             Lx             Ly             Lz          Enthalpy   
   5000000   0.59576833     0.062979241    0.039834965    0.13430372     13429113       0.0084178795   0.0085736102   0.008326236    0.0083537923  -8.0062862e-06  421.73074      302            105.43993      0.26146878   
   5001000   0.59576833     0.011279311   -0.045374629   -0.028455681    13429113       0.003368526    0.0033789317   0.0033486689   0.0033779774  -8.6091249e-06  421.73074      302            105.43993      0.022431102  
   5002000   0.59576833     0.011460262   -0.04960516    -0.032414786    13429113       0.0022282663   0.0022308383   0.0022201585   0.0022338022   9.1466136e-06  421.73074      302            105.43993      0.0012466154 
   5003000   0.59576833     0.011720474   -0.050413768   -0.032833077    13429113       0.0020129985   0.0020003688   0.0020230373   0.0020155893   1.4411067e-05  421.73074      302            105.43993     -0.0024236288 
   5004000   0.59576833     0.011341682   -0.050718057   -0.033705553    13429113       0.0021320333   0.0021251615   0.0021358597   0.0021350786  -3.2797026e-06  421.73074      302            105.43993     -0.0014979007 
   5005000   0.59576833     0.011606831   -0.050939165   -0.033528938    13429113       0.0020589264   0.002062976    0.0020598044   0.0020539989  -2.7414499e-06  421.73074      302            105.43993     -0.0024256769 
   5006000   0.59576833     0.011430204   -0.051068862   -0.033923575    13429113       0.002019937    0.0020113673   0.00201197     0.0020364735   2.3090711e-06  421.73074      302            105.43993     -0.00340931   
   5007000   0.59576833     0.011470789   -0.051184449   -0.033978286    13429113       0.0019841454   0.0020073099   0.0019511063   0.0019940199   2.0587178e-05  421.73074      302            105.43993     -0.0040047079 
   5008000   0.59576833     0.011530881   -0.051261489   -0.033965187    13429113       0.0019544022   0.0019610208   0.0019556329   0.001946553   -2.7420384e-06  421.73074      302            105.43993     -0.0044409257 
   5009000   0.59576833     0.011492978   -0.051344994   -0.034105547    13429113       0.0019204534   0.0019107084   0.001935352    0.0019152999  -1.5623825e-05  421.73074      302            105.43993     -0.0050941341 
   5010000   0.59576833     0.011543063   -0.051414948   -0.034100374    13429113       0.0019159852   0.0019269942   0.0019059793   0.0019149821  -8.6165712e-06  421.73074      302            105.43993     -0.0051564609 
Loop time of 38.3885 on 32 procs for 10000 steps with 888960 atoms

Performance: 112533.799 tau/day, 260.495 timesteps/s
91.9% CPU use with 32 MPI tasks x no OpenMP threads

MPI task timing breakdown:
Section |  min time  |  avg time  |  max time  |%varavg| %total
---------------------------------------------------------------
Pair    | 2.6981     | 6.538      | 12.588     |  89.2 | 17.03
Neigh   | 0.05632    | 0.081538   | 0.11033    |   5.4 |  0.21
Comm    | 8.0149     | 9.4611     | 10.482     |  17.7 | 24.65
Output  | 0.032635   | 0.032758   | 0.032991   |   0.0 |  0.09
Modify  | 16.15      | 21.739     | 24.729     |  44.3 | 56.63
Other   |            | 0.5363     |            |       |  1.40

Nlocal:          27780 ave       27874 max       27675 min
Histogram: 1 3 2 4 5 3 5 5 3 1
Nghost:        9331.78 ave        9824 max        8854 min
Histogram: 10 6 0 0 0 0 0 1 8 7
Neighs:              0 ave           0 max           0 min
Histogram: 32 0 0 0 0 0 0 0 0 0
FullNghs:            0 ave           0 max           0 min
Histogram: 32 0 0 0 0 0 0 0 0 0

Total # of neighbors = 0
Ave neighs/atom = 0
Neighbor list builds = 96
Dangerous builds = 0
group zerog variable zerov
113907 atoms in group zerog
group todel intersect linker zerog
99658 atoms in group todel
delete_atoms group todel
Deleted 99658 atoms, new total = 789302
group zerog delete
group todel delete
velocity all create ${tlow} ${rand1}
velocity all create 0.0115 ${rand1}
velocity all create 0.0115 6368286
Generated 0 of 28 mixed pair_coeff terms from geometric mixing rule
Per MPI rank memory allocation (min/avg/max) = 24.88 | 29.75 | 37.57 Mbytes
   Step        Density          Temp          PotEng         TotEng         Volume         Press           Pxx            Pyy            Pzz            Pxz             Lx             Ly             Lz          Enthalpy   
   5010000   0.52897896     0.0115        -0.052182145   -0.034932167    13429113       0.0012386747   0.0012577019   0.0012078892   0.001250433   -8.5543277e-06  421.73074      302            105.43993     -0.013857468  
   5011000   0.52897896     0.011452337   -0.052188193   -0.03500971     13429113       0.0016033347   0.0016049157   0.0016109164   0.0015941721   1.4264863e-05  421.73074      302            105.43993     -0.0077307186 
   5012000   0.52897896     0.011489489   -0.052449183   -0.035214971    13429113       0.0012533558   0.0012687623   0.001242163    0.001249142   -2.128692e-05   421.73074      302            105.43993     -0.01389049   
   5013000   0.52897896     0.011478423   -0.052617628   -0.035400015    13429113       0.0012138494   0.0012145336   0.0012072425   0.0012197721  -5.4371522e-06  421.73074      302            105.43993     -0.014747691  
   5014000   0.52897896     0.011503879   -0.05272726    -0.035471462    13429113       0.0012176727   0.0012170236   0.0012280558   0.0012079387   1.4011974e-06  421.73074      302            105.43993     -0.01475409   
   5015000   0.52897896     0.011514943   -0.052776103   -0.03550371     13429113       0.0012126017   0.0012027797   0.0012178354   0.0012171899  -4.4473346e-06  421.73074      302            105.43993     -0.014872615  
   5016000   0.52897896     0.011487534   -0.052869162   -0.035637883    13429113       0.0012133676   0.0012188231   0.0012086534   0.0012126261  -1.7354103e-05  421.73074      302            105.43993     -0.014993757  
   5017000   0.52897896     0.011526661   -0.052930544   -0.035640574    13429113       0.0011931024   0.0011920388   0.0011751134   0.0012121551  -2.2754857e-05  421.73074      302            105.43993     -0.015341238  
   5018000   0.52897896     0.011499241   -0.053005074   -0.035756235    13429113       0.0011815795   0.0011858881   0.0011700563   0.0011887941  -2.4973605e-06  421.73074      302            105.43993     -0.015652948  
   5019000   0.52897896     0.011508966   -0.053054155   -0.035790728    13429113       0.0011698245   0.001185379    0.0011647443   0.0011593501   7.9359691e-06  421.73074      302            105.43993     -0.01588744   
   5020000   0.52897896     0.011482912   -0.053117898   -0.035893551    13429113       0.001131183    0.0011324607   0.0011015885   0.0011594997  -1.2757008e-05  421.73074      302            105.43993     -0.016647706  
Loop time of 35.9036 on 32 procs for 10000 steps with 789302 atoms

Performance: 120322.239 tau/day, 278.524 timesteps/s
92.4% CPU use with 32 MPI tasks x no OpenMP threads

MPI task timing breakdown:
Section |  min time  |  avg time  |  max time  |%varavg| %total
---------------------------------------------------------------
Pair    | 2.6357     | 6.1514     | 12.466     |  91.4 | 17.13
Neigh   | 0.047748   | 0.067896   | 0.094973   |   5.2 |  0.19
Comm    | 6.2325     | 8.0687     | 8.8802     |  21.6 | 22.47
Output  | 0.032134   | 0.032242   | 0.032771   |   0.1 |  0.09
Modify  | 15.44      | 21.123     | 23.886     |  44.9 | 58.83
Other   |            | 0.46       |            |       |  1.28

Nlocal:        24665.7 ave       24801 max       24505 min
Histogram: 3 1 0 6 5 2 7 3 2 3
Nghost:        8344.09 ave        8804 max        7829 min
Histogram: 8 8 0 0 0 0 0 0 2 14
Neighs:              0 ave           0 max           0 min
Histogram: 32 0 0 0 0 0 0 0 0 0
FullNghs:       549674 ave      557378 max      543204 min
Histogram: 4 5 5 2 1 2 3 3 5 2

Total # of neighbors = 17589556
Ave neighs/atom = 22.284951
Neighbor list builds = 90
Dangerous builds = 0
group zerog variable zerov
18313 atoms in group zerog
group todel intersect linker zerog
797 atoms in group todel
delete_atoms group todel
Deleted 797 atoms, new total = 788505
group zerog delete
group todel delete
velocity all create ${tlow} ${rand1}
velocity all create 0.0115 ${rand1}
velocity all create 0.0115 2120942
Generated 0 of 28 mixed pair_coeff terms from geometric mixing rule
Per MPI rank memory allocation (min/avg/max) = 24.88 | 29.75 | 37.57 Mbytes
   Step        Density          Temp          PotEng         TotEng         Volume         Press           Pxx            Pyy            Pzz            Pxz             Lx             Ly             Lz          Enthalpy   
   5020000   0.52844482     0.0115        -0.053082371   -0.035832393    13429113       0.0011260893   0.0011369975   0.0010751698   0.0011661006  -1.3438537e-05  421.73074      302            105.43993     -0.016653846  
   5021000   0.52844482     0.011503673   -0.052852832   -0.035597344    13429113       0.0011469749   0.0011674004   0.0011471788   0.0011263454   2.4635864e-05  421.73074      302            105.43993     -0.016063093  
   5022000   0.52844482     0.011436679   -0.052827938   -0.035672941    13429113       0.0011973536   0.0011943626   0.0012066648   0.0011910335  -2.7640587e-06  421.73074      302            105.43993     -0.015280683  
   5023000   0.52844482     0.011511342   -0.052871686   -0.035604695    13429113       0.0011467415   0.0011361189   0.0011465725   0.0011575331  -7.6410658e-06  421.73074      302            105.43993     -0.016074418  
   5024000   0.52844482     0.011502872   -0.052906285   -0.035651999    13429113       0.0011485959   0.0011504858   0.0011295111   0.0011657907  -9.0951701e-06  421.73074      302            105.43993     -0.01609014   
   5025000   0.52844482     0.011513344   -0.052945451   -0.035675456    13429113       0.0011400784   0.0011413683   0.0011254718   0.001153395    1.0977037e-05  421.73074      302            105.43993     -0.01625866   
   5026000   0.52844482     0.011479215   -0.052996485   -0.035777685    13429113       0.0011109483   0.0011335048   0.0010819033   0.0011174368   1.237307e-05   421.73074      302            105.43993     -0.016857006  
   5027000   0.52844482     0.011505953   -0.053038683   -0.035779775    13429113       0.0011324781   0.001124454    0.0011342518   0.0011387286  -4.526391e-06   421.73074      302            105.43993     -0.016492419  
   5028000   0.52844482     0.011511353   -0.05308377    -0.035816762    13429113       0.0011236654   0.001145153    0.0011084564   0.0011173868   1.5048925e-05  421.73074      302            105.43993     -0.016679497  
   5029000   0.52844482     0.011504423   -0.053131092   -0.035874479    13429113       0.0011016755   0.0011070376   0.0010949388   0.0011030502   1.4551314e-06  421.73074      302            105.43993     -0.017111726  
   5030000   0.52844482     0.011499722   -0.05316415    -0.035914589    13429113       0.0011062784   0.0011129052   0.0010821507   0.0011237792   3.6077769e-06  421.73074      302            105.43993     -0.017073444  
Loop time of 36.2017 on 32 procs for 10000 steps with 788505 atoms

Performance: 119331.546 tau/day, 276.230 timesteps/s
92.6% CPU use with 32 MPI tasks x no OpenMP threads

MPI task timing breakdown:
Section |  min time  |  avg time  |  max time  |%varavg| %total
---------------------------------------------------------------
Pair    | 2.572      | 6.1253     | 12.712     |  89.5 | 16.92
Neigh   | 0.045849   | 0.064148   | 0.094877   |   5.2 |  0.18
Comm    | 6.8765     | 8.0666     | 8.8031     |  17.9 | 22.28
Output  | 0.031328   | 0.031423   | 0.031596   |   0.0 |  0.09
Modify  | 16.093     | 21.457     | 24.332     |  44.4 | 59.27
Other   |            | 0.4576     |            |       |  1.26

Nlocal:        24640.8 ave       24792 max       24426 min
Histogram: 2 0 0 5 4 3 8 5 3 2
Nghost:        8387.72 ave        8931 max        7800 min
Histogram: 5 10 1 0 0 0 0 0 4 12
Neighs:              0 ave           0 max           0 min
Histogram: 32 0 0 0 0 0 0 0 0 0
FullNghs:       429167 ave      438243 max      419410 min
Histogram: 3 4 3 4 3 0 3 4 2 6

Total # of neighbors = 13733348
Ave neighs/atom = 17.416945
Neighbor list builds = 85
Dangerous builds = 0
group zerog variable zerov
17592 atoms in group zerog
group todel intersect linker zerog
10 atoms in group todel
delete_atoms group todel
Deleted 10 atoms, new total = 788495
group zerog delete
group todel delete
velocity all create ${tlow} ${rand1}
velocity all create 0.0115 ${rand1}
velocity all create 0.0115 6027394
Generated 0 of 28 mixed pair_coeff terms from geometric mixing rule
Per MPI rank memory allocation (min/avg/max) = 24.88 | 29.75 | 37.57 Mbytes
   Step        Density          Temp          PotEng         TotEng         Volume         Press           Pxx            Pyy            Pzz            Pxz             Lx             Ly             Lz          Enthalpy   
   5030000   0.52843812     0.0115        -0.053163781   -0.035913803    13429113       0.0011062643   0.0011212988   0.0010644528   0.0011330414   4.943121e-06   421.73074      302            105.43993     -0.017072658  
   5031000   0.52843812     0.011487855   -0.05305965    -0.03582789     13429113       0.0010817269   0.0010881708   0.0010673451   0.0010896647   8.7711803e-06  421.73074      302            105.43993     -0.01740465   
   5032000   0.52843812     0.011476648   -0.053010191   -0.035795241    13429113       0.0011643209   0.0011575172   0.0011418717   0.0011935737  -8.3439708e-06  421.73074      302            105.43993     -0.015965317  
   5033000   0.52843812     0.011513025   -0.053011831   -0.035742316    13429113       0.001106485    0.0011169721   0.001091656    0.0011108268   4.5643139e-06  421.73074      302            105.43993     -0.016897414  
   5034000   0.52843812     0.011457292   -0.053050681   -0.035864764    13429113       0.0011283395   0.0011440479   0.0011096892   0.0011312815   2.9480675e-05  421.73074      302            105.43993     -0.01664765   
   5035000   0.52843812     0.011510633   -0.053088542   -0.035822615    13429113       0.0011140855   0.0011235139   0.0011008862   0.0011178563   7.8417427e-06  421.73074      302            105.43993     -0.016848266  
   5036000   0.52843812     0.011492313   -0.053120158   -0.035881711    13429113       0.0011020866   0.0011035158   0.0010777802   0.0011249638   1.3902851e-05  421.73074      302            105.43993     -0.017111719  
   5037000   0.52843812     0.011520312   -0.053150648   -0.035870203    13429113       0.0011102936   0.0010932632   0.0011204925   0.0011171251   2.9372066e-06  421.73074      302            105.43993     -0.016960434  
   5038000   0.52843812     0.011477411   -0.053155777   -0.035939682    13429113       0.0010970349   0.0011128165   0.0010641054   0.0011141827   2.3353782e-05  421.73074      302            105.43993     -0.017255727  
   5039000   0.52843812     0.011513506   -0.05319772    -0.035927484    13429113       0.0011039408   0.0011064544   0.0010775423   0.0011278257  -3.6959192e-06  421.73074      302            105.43993     -0.017125912  
   5040000   0.52843812     0.011522865   -0.053231519   -0.035947243    13429113       0.001064983    0.0010645031   0.0010570933   0.0010733526  -4.8158132e-06  421.73074      302            105.43993     -0.017809175  
Loop time of 35.0577 on 32 procs for 10000 steps with 788495 atoms

Performance: 123225.437 tau/day, 285.244 timesteps/s
92.3% CPU use with 32 MPI tasks x no OpenMP threads

MPI task timing breakdown:
Section |  min time  |  avg time  |  max time  |%varavg| %total
---------------------------------------------------------------
Pair    | 2.6493     | 6.3344     | 13.348     |  96.6 | 18.07
Neigh   | 0.044623   | 0.062072   | 0.10484    |   5.5 |  0.18
Comm    | 6.2669     | 8.0059     | 8.6129     |  19.2 | 22.84
Output  | 0.02649    | 0.026628   | 0.026845   |   0.0 |  0.08
Modify  | 13.855     | 20.169     | 23.334     |  52.2 | 57.53
Other   |            | 0.4602     |            |       |  1.31

Nlocal:        24640.5 ave       24824 max       24482 min
Histogram: 2 1 6 3 3 10 3 1 2 1
Nghost:        8421.97 ave        8970 max        7842 min
Histogram: 9 6 1 0 0 0 0 0 3 13
Neighs:              0 ave           0 max           0 min
Histogram: 32 0 0 0 0 0 0 0 0 0
FullNghs:       427581 ave      438346 max      415463 min
Histogram: 1 5 3 5 3 1 1 4 3 6

Total # of neighbors = 13682592
Ave neighs/atom = 17.352795
Neighbor list builds = 82
Dangerous builds = 0
group zerog variable zerov
17580 atoms in group zerog
group todel intersect linker zerog
1 atoms in group todel
delete_atoms group todel
Deleted 1 atoms, new total = 788494
group zerog delete
group todel delete
velocity all create ${tlow} ${rand1}
velocity all create 0.0115 ${rand1}
velocity all create 0.0115 3212967
Generated 0 of 28 mixed pair_coeff terms from geometric mixing rule
Per MPI rank memory allocation (min/avg/max) = 24.88 | 29.75 | 37.57 Mbytes
   Step        Density          Temp          PotEng         TotEng         Volume         Press           Pxx            Pyy            Pzz            Pxz             Lx             Ly             Lz          Enthalpy   
   5040000   0.52843744     0.0115        -0.053231457   -0.035981479    13429113       0.0010636338   0.0010714544   0.0010399934   0.0010794537  -3.7644878e-06  421.73074      302            105.43993     -0.017866365  
   5041000   0.52843744     0.011490629   -0.053146048   -0.035910126    13429113       0.0010427092   0.0010490995   0.0010312499   0.0010477782  -6.1889669e-06  421.73074      302            105.43993     -0.018151387  
   5042000   0.52843744     0.011494464   -0.053127667   -0.035885992    13429113       0.0011448784   0.0011627336   0.0011121694   0.0011597321   1.2456591e-05  421.73074      302            105.43993     -0.016387175  
   5043000   0.52843744     0.011505386   -0.053105263   -0.035847206    13429113       0.0010509197   0.0010619223   0.001043173    0.001047664    2.2357637e-06  421.73074      302            105.43993     -0.01794863   
   5044000   0.52843744     0.011509032   -0.053160939   -0.035897412    13429113       0.0010864891   0.0011031974   0.0010674243   0.0010888457  -2.5924574e-06  421.73074      302            105.43993     -0.017393042  
   5045000   0.52843744     0.011486892   -0.053170488   -0.035940172    13429113       0.00107413     0.0010881808   0.0010606506   0.0010735586   1.5011933e-05  421.73074      302            105.43993     -0.017646294  
   5046000   0.52843744     0.011534425   -0.053196746   -0.035895131    13429113       0.0010847909   0.0011125914   0.0010594013   0.0010823801  -1.1801392e-06  421.73074      302            105.43993     -0.017419683  
   5047000   0.52843744     0.011490321   -0.053225652   -0.035990192    13429113       0.001047644    0.0010486399   0.0010309121   0.0010633799  -8.3784231e-06  421.73074      302            105.43993     -0.018147407  
   5048000   0.52843744     0.011504222   -0.053249259   -0.035992947    13429113       0.0010646661   0.0010681693   0.0010499249   0.0010759042  -6.3460289e-06  421.73074      302            105.43993     -0.017860252  
   5049000   0.52843744     0.011494944   -0.053258686   -0.036016291    13429113       0.0010667256   0.0010748819   0.0010346504   0.0010906445   1.5430342e-06  421.73074      302            105.43993     -0.01784852   
   5050000   0.52843744     0.011495407   -0.053298358   -0.036055269    13429113       0.0010410042   0.0010391757   0.0010159638   0.0010678733  -6.6213186e-07  421.73074      302            105.43993     -0.018325567  
Loop time of 34.5837 on 32 procs for 10000 steps with 788494 atoms

Performance: 124914.246 tau/day, 289.153 timesteps/s
92.5% CPU use with 32 MPI tasks x no OpenMP threads

MPI task timing breakdown:
Section |  min time  |  avg time  |  max time  |%varavg| %total
---------------------------------------------------------------
Pair    | 2.72       | 6.1163     | 12.712     |  96.6 | 17.69
Neigh   | 0.041656   | 0.058962   | 0.085935   |   5.6 |  0.17
Comm    | 6.8152     | 7.8939     | 8.8827     |  18.7 | 22.83
Output  | 0.31233    | 0.31247    | 0.31268    |   0.0 |  0.90
Modify  | 13.455     | 19.762     | 22.578     |  53.0 | 57.14
Other   |            | 0.4406     |            |       |  1.27

Nlocal:        24640.4 ave       24829 max       24457 min
Histogram: 1 1 5 5 1 10 5 2 1 1
Nghost:        8447.94 ave        9052 max        7852 min
Histogram: 12 3 1 0 0 0 0 0 5 11
Neighs:              0 ave           0 max           0 min
Histogram: 32 0 0 0 0 0 0 0 0 0
FullNghs:       426707 ave      438677 max      414641 min
Histogram: 3 4 4 4 1 1 3 5 5 2

Total # of neighbors = 13654638
Ave neighs/atom = 17.317364
Neighbor list builds = 78
Dangerous builds = 0
group zerog variable zerov
17580 atoms in group zerog
group todel intersect linker zerog
0 atoms in group todel
delete_atoms group todel
Deleted 0 atoms, new total = 788494
group zerog delete
group todel delete
velocity all create ${tlow} ${rand1}
velocity all create 0.0115 ${rand1}
velocity all create 0.0115 7622534
Generated 0 of 28 mixed pair_coeff terms from geometric mixing rule
Per MPI rank memory allocation (min/avg/max) = 24.88 | 29.75 | 37.57 Mbytes
   Step        Density          Temp          PotEng         TotEng         Volume         Press           Pxx            Pyy            Pzz            Pxz             Lx             Ly             Lz          Enthalpy   
   5050000   0.52843744     0.0115        -0.053298358   -0.03604838     13429113       0.0010412739   0.0010440789   0.0010059808   0.001073762   -1.5323904e-06  421.73074      302            105.43993     -0.018314086  
   5051000   0.52843744     0.011469549   -0.053253813   -0.036049512    13429113       0.0010333208   0.001049285    0.001005192    0.0010454854   2.5576707e-06  421.73074      302            105.43993     -0.018450669  
   5052000   0.52843744     0.011492518   -0.053222335   -0.03598358     13429113       0.0011146565   0.0011316268   0.0010894785   0.0011228644   2.9120574e-06  421.73074      302            105.43993     -0.016999481  
   5053000   0.52843744     0.011498891   -0.053206182   -0.035957867    13429113       0.0010476711   0.0010573392   0.0010455517   0.0010401225  -9.8051153e-06  421.73074      302            105.43993     -0.01811462   
   5054000   0.52843744     0.011508148   -0.053224896   -0.035962696    13429113       0.0010667659   0.0010771043   0.0010357566   0.0010874368  -2.8861311e-06  421.73074      302            105.43993     -0.017794239  
   5055000   0.52843744     0.011513648   -0.053247607   -0.035977157    13429113       0.0010461237   0.0010542764   0.0010209227   0.0010631719   5.529536e-06   421.73074      302            105.43993     -0.018160265  
   5056000   0.52843744     0.011493208   -0.053243887   -0.036004097    13429113       0.0010619283   0.0010868242   0.0010309638   0.0010679969   9.8774562e-06  421.73074      302            105.43993     -0.017918031  
   5057000   0.52843744     0.011505065   -0.053277723   -0.036020148    13429113       0.0010716524   0.0010822827   0.0010269769   0.0011056975  -4.6024339e-06  421.73074      302            105.43993     -0.017768468  
   5058000   0.52843744     0.011502871   -0.053308331   -0.036054046    13429113       0.0010348342   0.0010473134   0.001019064    0.0010381251   2.2233195e-07  421.73074      302            105.43993     -0.018429429  
   5059000   0.52843744     0.011503475   -0.053329999   -0.036074809    13429113       0.0010719122   0.0010871917   0.0010447742   0.0010837707  -5.8090425e-06  421.73074      302            105.43993     -0.017818703  
   5060000   0.52843744     0.011512533   -0.053359197   -0.03609042     13429113       0.0010232562   0.0010463938   0.00099525465  0.0010281203   1.2453819e-05  421.73074      302            105.43993     -0.018662991  
Loop time of 34.4285 on 32 procs for 10000 steps with 788494 atoms

Performance: 125477.497 tau/day, 290.457 timesteps/s
91.6% CPU use with 32 MPI tasks x no OpenMP threads

MPI task timing breakdown:
Section |  min time  |  avg time  |  max time  |%varavg| %total
---------------------------------------------------------------
Pair    | 2.7829     | 6.4199     | 13.359     | 101.9 | 18.65
Neigh   | 0.04072    | 0.057073   | 0.091155   |   5.4 |  0.17
Comm    | 6.2642     | 7.781      | 8.6821     |  20.1 | 22.60
Output  | 0.0253     | 0.025416   | 0.025652   |   0.0 |  0.07
Modify  | 12.917     | 19.699     | 22.737     |  56.2 | 57.22
Other   |            | 0.4464     |            |       |  1.30

Nlocal:        24640.4 ave       24852 max       24429 min
Histogram: 2 0 3 6 7 2 6 4 1 1
Nghost:        8478.88 ave        9101 max        7811 min
Histogram: 8 8 0 0 0 0 0 0 2 14
Neighs:              0 ave           0 max           0 min
Histogram: 32 0 0 0 0 0 0 0 0 0
FullNghs:       425965 ave      439173 max      412407 min
Histogram: 1 6 5 3 1 1 3 6 4 2

Total # of neighbors = 13630878
Ave neighs/atom = 17.287231
Neighbor list builds = 76
Dangerous builds = 0
group zerog variable zerov
17581 atoms in group zerog
group todel intersect linker zerog
0 atoms in group todel
delete_atoms group todel
Deleted 0 atoms, new total = 788494
group zerog delete
group todel delete
velocity all create ${tlow} ${rand1}
velocity all create 0.0115 ${rand1}
velocity all create 0.0115 1762012
Generated 0 of 28 mixed pair_coeff terms from geometric mixing rule
Per MPI rank memory allocation (min/avg/max) = 24.88 | 29.75 | 37.57 Mbytes
   Step        Density          Temp          PotEng         TotEng         Volume         Press           Pxx            Pyy            Pzz            Pxz             Lx             Ly             Lz          Enthalpy   
   5060000   0.52843744     0.0115        -0.053359197   -0.036109219    13429113       0.0010225204   0.0010524184   0.00098610278  0.00102904     1.1848938e-05  421.73074      302            105.43993     -0.018694322  
   5061000   0.52843744     0.011456541   -0.053322507   -0.036137717    13429113       0.00099467123  0.0010179769   0.00094723173  0.001018805   -3.2182109e-06  421.73074      302            105.43993     -0.019197129  
   5062000   0.52843744     0.011497182   -0.053288741   -0.036042989    13429113       0.0010950437   0.001115357    0.0010476743   0.0011220999  -3.5699889e-06  421.73074      302            105.43993     -0.017392922  
   5063000   0.52843744     0.011492142   -0.053274101   -0.03603591     13429113       0.0010361988   0.0010465018   0.0010007543   0.0010613404  -5.1787314e-07  421.73074      302            105.43993     -0.018388051  
   5064000   0.52843744     0.011537479   -0.053280238   -0.035974042    13429113       0.0010808584   0.0010901901   0.001059517    0.001092868    1.0694457e-05  421.73074      302            105.43993     -0.017565571  
   5065000   0.52843744     0.011499706   -0.053274231   -0.036024694    13429113       0.0010352432   0.0010639952   0.00099265912  0.0010490751   1.2384558e-05  421.73074      302            105.43993     -0.018393111  
   5066000   0.52843744     0.011505926   -0.053298891   -0.036040024    13429113       0.0010213197   0.0010212116   0.0010033405   0.0010394069   4.3481882e-06  421.73074      302            105.43993     -0.018645577  
   5067000   0.52843744     0.011492587   -0.05332568    -0.036086822    13429113       0.0010474176   0.0010579348   0.0010140822   0.0010702357  -8.9277638e-06  421.73074      302            105.43993     -0.018247892  
   5068000   0.52843744     0.011501304   -0.053345027   -0.036093093    13429113       0.0010524032   0.0010857723   0.001010028    0.0010614093   3.6758196e-06  421.73074      302            105.43993     -0.018169252  
   5069000   0.52843744     0.011502718   -0.053363656   -0.036109601    13429113       0.0010328272   0.0010424882   0.0010204361   0.0010355573   1.5929314e-05  421.73074      302            105.43993     -0.018519167  
   5070000   0.52843744     0.011486691   -0.053371096   -0.036141082    13429113       0.0010136624   0.001007093    0.00098853418  0.0010453602  -1.9986701e-05  421.73074      302            105.43993     -0.018877048  
Loop time of 34.514 on 32 procs for 10000 steps with 788494 atoms

Performance: 125166.679 tau/day, 289.738 timesteps/s
91.8% CPU use with 32 MPI tasks x no OpenMP threads

MPI task timing breakdown:
Section |  min time  |  avg time  |  max time  |%varavg| %total
---------------------------------------------------------------
Pair    | 2.8145     | 6.5582     | 13.156     | 100.6 | 19.00
Neigh   | 0.039082   | 0.055994   | 0.099675   |   5.8 |  0.16
Comm    | 5.6337     | 7.615      | 8.536      |  22.4 | 22.06
Output  | 0.027063   | 0.027136   | 0.027334   |   0.0 |  0.08
Modify  | 13.138     | 19.812     | 22.993     |  56.4 | 57.40
Other   |            | 0.4457     |            |       |  1.29

Nlocal:        24640.4 ave       24861 max       24507 min
Histogram: 5 3 4 5 5 6 1 2 0 1
Nghost:        8498.03 ave        9122 max        7879 min
Histogram: 13 3 0 0 0 0 0 0 4 12
Neighs:              0 ave           0 max           0 min
Histogram: 32 0 0 0 0 0 0 0 0 0
FullNghs:       425301 ave      440195 max      409948 min
Histogram: 2 2 7 4 1 1 2 7 5 1

Total # of neighbors = 13609618
Ave neighs/atom = 17.260268
Neighbor list builds = 74
Dangerous builds = 0
group zerog variable zerov
17576 atoms in group zerog
group todel intersect linker zerog
0 atoms in group todel
delete_atoms group todel
Deleted 0 atoms, new total = 788494
group zerog delete
group todel delete
velocity all create ${tlow} ${rand1}
velocity all create 0.0115 ${rand1}
velocity all create 0.0115 8527540
Generated 0 of 28 mixed pair_coeff terms from geometric mixing rule
Per MPI rank memory allocation (min/avg/max) = 24.88 | 29.75 | 37.57 Mbytes
   Step        Density          Temp          PotEng         TotEng         Volume         Press           Pxx            Pyy            Pzz            Pxz             Lx             Ly             Lz          Enthalpy   
   5070000   0.52843744     0.0115        -0.053371096   -0.036121118    13429113       0.0010144439   0.0010110668   0.0009820148   0.0010502501  -2.0285731e-05  421.73074      302            105.43993     -0.018843775  
   5071000   0.52843744     0.011449704   -0.053338685   -0.03616415     13429113       0.0010107241   0.0010223707   0.00097291847  0.0010368832  -2.747479e-05   421.73074      302            105.43993     -0.018950159  
   5072000   0.52843744     0.011498187   -0.053301956   -0.036054697    13429113       0.0010779973   0.0011173719   0.0010379661   0.0010786538  -1.1168985e-05  421.73074      302            105.43993     -0.017694955  
   5073000   0.52843744     0.011504118   -0.05331848    -0.036062325    13429113       0.0010513481   0.0010646883   0.0010272195   0.0010621365   8.1925989e-06  421.73074      302            105.43993     -0.018156454  
   5074000   0.52843744     0.011519827   -0.053317381   -0.036037663    13429113       0.0010490432   0.0010728696   0.0010087285   0.0010655316   1.9693562e-05  421.73074      302            105.43993     -0.018171047  
   5075000   0.52843744     0.011479952   -0.053331204   -0.036111298    13429113       0.0010376398   0.0010641466   0.0010150477   0.0010337251  -1.362891e-05   421.73074      302            105.43993     -0.018438897  
   5076000   0.52843744     0.011523111   -0.053355147   -0.036070503    13429113       0.0010142538   0.0010268472   0.00097806277  0.0010378513  -9.8762936e-06  421.73074      302            105.43993     -0.018796398  
   5077000   0.52843744     0.01147727    -0.053343011   -0.036127128    13429113       0.001018091    0.0010301817   0.00098613722  0.001037954    3.2864874e-05  421.73074      302            105.43993     -0.01878767   
   5078000   0.52843744     0.011523705   -0.053382271   -0.036096735    13429113       0.0010255624   0.0010466277   0.00098051704  0.0010495424  -1.5628006e-05  421.73074      302            105.43993     -0.018630029  
   5079000   0.52843744     0.011487235   -0.053400951   -0.03617012     13429113       0.0010115676   0.0010397267   0.00096515611  0.00102982     2.0490638e-05  421.73074      302            105.43993     -0.018941764  
   5080000   0.52843744     0.011504948   -0.053426505   -0.036169105    13429113       0.0010373114   0.0010614697   0.0009933145   0.0010571501   2.6541086e-06  421.73074      302            105.43993     -0.018502298  
Loop time of 35.1491 on 32 procs for 10000 steps with 788494 atoms

Performance: 122904.947 tau/day, 284.502 timesteps/s
92.2% CPU use with 32 MPI tasks x no OpenMP threads

MPI task timing breakdown:
Section |  min time  |  avg time  |  max time  |%varavg| %total
---------------------------------------------------------------
Pair    | 2.8082     | 6.2616     | 12.816     |  95.4 | 17.81
Neigh   | 0.038371   | 0.05472    | 0.076106   |   4.6 |  0.16
Comm    | 6.8722     | 7.8052     | 8.7198     |  18.5 | 22.21
Output  | 0.031221   | 0.031295   | 0.031508   |   0.0 |  0.09
Modify  | 14.558     | 20.556     | 23.514     |  50.5 | 58.48
Other   |            | 0.4403     |            |       |  1.25

Nlocal:        24640.4 ave       24850 max       24443 min
Histogram: 1 3 3 4 5 7 3 3 1 2
Nghost:        8508.94 ave        9140 max        7773 min
Histogram: 2 14 0 0 0 0 0 0 2 14
Neighs:              0 ave           0 max           0 min
Histogram: 32 0 0 0 0 0 0 0 0 0
FullNghs:       424537 ave      439493 max      410719 min
Histogram: 3 6 6 1 0 1 3 6 4 2

Total # of neighbors = 13585190
Ave neighs/atom = 17.229288
Neighbor list builds = 72
Dangerous builds = 0
group zerog variable zerov
17578 atoms in group zerog
group todel intersect linker zerog
0 atoms in group todel
delete_atoms group todel
Deleted 0 atoms, new total = 788494
group zerog delete
group todel delete
velocity all create ${tlow} ${rand1}
velocity all create 0.0115 ${rand1}
velocity all create 0.0115 5849156
Generated 0 of 28 mixed pair_coeff terms from geometric mixing rule
Per MPI rank memory allocation (min/avg/max) = 24.88 | 29.75 | 37.57 Mbytes
   Step        Density          Temp          PotEng         TotEng         Volume         Press           Pxx            Pyy            Pzz            Pxz             Lx             Ly             Lz          Enthalpy   
   5080000   0.52843744     0.0115        -0.053426505   -0.036176527    13429113       0.0010370209   0.0010632599   0.00098879048  0.0010590123   3.0148348e-06  421.73074      302            105.43993     -0.018514667  
   5081000   0.52843744     0.011458171   -0.053396667   -0.036209432    13429113       0.00098946829  0.0010000081   0.00094510344  0.0010232933   4.3183752e-06  421.73074      302            105.43993     -0.019357457  
   5082000   0.52843744     0.01150151    -0.053347466   -0.036095224    13429113       0.0010605798   0.0010792231   0.0010286845   0.0010738318   5.8883221e-06  421.73074      302            105.43993     -0.018032124  
   5083000   0.52843744     0.011510082   -0.053363488   -0.036098386    13429113       0.0010348478   0.0010644868   0.00097805716  0.0010619995  -3.6395495e-06  421.73074      302            105.43993     -0.018473537  
   5084000   0.52843744     0.011511335   -0.053363526   -0.036096546    13429113       0.0010261532   0.0010430763   0.00097838883  0.0010569945   9.6370281e-06  421.73074      302            105.43993     -0.018619777  
   5085000   0.52843744     0.011505095   -0.053366983   -0.036109363    13429113       0.0010358515   0.0010557287   0.00098537249  0.0010664532  -2.9674329e-06  421.73074      302            105.43993     -0.01846742   
   5086000   0.52843744     0.011518758   -0.053381674   -0.036103558    13429113       0.0010424434   0.0010686328   0.00098881616  0.0010698812   4.1543225e-06  421.73074      302            105.43993     -0.018349346  
   5087000   0.52843744     0.011506577   -0.053407197   -0.036147353    13429113       0.00099921313  0.0010385265   0.0009599164   0.0009991965  -8.1236034e-06  421.73074      302            105.43993     -0.019129411  
   5088000   0.52843744     0.011494365   -0.053405663   -0.036164138    13429113       0.00098850847  0.00099733575  0.00096064262  0.001007547   -3.6411441e-05  421.73074      302            105.43993     -0.01932851   
   5089000   0.52843744     0.011497639   -0.053406185   -0.036159748    13429113       0.0010262843   0.0010642972   0.00099166415  0.0010228916  -4.3145771e-06  421.73074      302            105.43993     -0.018680746  
   5090000   0.52843744     0.011496898   -0.053421078   -0.036175753    13429113       0.001016061    0.0010490651   0.00097955269  0.0010195653   1.1996451e-05  421.73074      302            105.43993     -0.018870868  
Loop time of 34.5846 on 32 procs for 10000 steps with 788494 atoms

Performance: 124911.219 tau/day, 289.146 timesteps/s
92.2% CPU use with 32 MPI tasks x no OpenMP threads

MPI task timing breakdown:
Section |  min time  |  avg time  |  max time  |%varavg| %total
---------------------------------------------------------------
Pair    | 2.8266     | 6.4429     | 13.238     | 101.4 | 18.63
Neigh   | 0.038905   | 0.0542     | 0.086801   |   5.0 |  0.16
Comm    | 6.0851     | 7.665      | 8.362      |  20.1 | 22.16
Output  | 0.032261   | 0.032355   | 0.032626   |   0.0 |  0.09
Modify  | 13.279     | 19.943     | 23.128     |  54.3 | 57.67
Other   |            | 0.4468     |            |       |  1.29

Nlocal:        24640.4 ave       24864 max       24446 min
Histogram: 2 1 5 3 7 7 4 1 0 2
Nghost:        8516.72 ave        9173 max        7824 min
Histogram: 11 5 0 0 0 0 0 0 1 15
Neighs:              0 ave           0 max           0 min
Histogram: 32 0 0 0 0 0 0 0 0 0
FullNghs:       424112 ave      439939 max      409027 min
Histogram: 2 6 8 0 0 2 3 4 3 4

Total # of neighbors = 13571598
Ave neighs/atom = 17.21205
Neighbor list builds = 72
Dangerous builds = 0
group zerog variable zerov
17580 atoms in group zerog
group todel intersect linker zerog
0 atoms in group todel
delete_atoms group todel
Deleted 0 atoms, new total = 788494
group zerog delete
group todel delete
velocity all create ${tlow} ${rand1}
velocity all create 0.0115 ${rand1}
velocity all create 0.0115 5917642
Generated 0 of 28 mixed pair_coeff terms from geometric mixing rule
Per MPI rank memory allocation (min/avg/max) = 24.88 | 29.75 | 37.57 Mbytes
   Step        Density          Temp          PotEng         TotEng         Volume         Press           Pxx            Pyy            Pzz            Pxz             Lx             Ly             Lz          Enthalpy   
   5090000   0.52843744     0.0115        -0.053421078   -0.0361711      13429113       0.0010162432   0.0010510805   0.00097791185  0.0010197372   1.3096624e-05  421.73074      302            105.43993     -0.018863113  
   5091000   0.52843744     0.011489001   -0.053408238   -0.036174759    13429113       0.00099224896  0.0010163412   0.00095115538  0.0010092503   1.3027706e-05  421.73074      302            105.43993     -0.019275425  
   5092000   0.52843744     0.011495774   -0.053401843   -0.036158204    13429113       0.0010599383   0.0010729234   0.0010110473   0.0010958441   1.6450218e-05  421.73074      302            105.43993     -0.018106031  
   5093000   0.52843744     0.011507281   -0.053382967   -0.036122067    13429113       0.0010096806   0.0010514011   0.00095028591  0.0010273547  -8.3857029e-06  421.73074      302            105.43993     -0.01892585   
   5094000   0.52843744     0.011514295   -0.053398543   -0.036127122    13429113       0.0010496845   0.0010692033   0.0010100814   0.0010697687  -1.1595863e-05  421.73074      302            105.43993     -0.018249585  
   5095000   0.52843744     0.011489742   -0.053418397   -0.036183806    13429113       0.001005581    0.0010367412   0.00094768202  0.0010323198   1.2456708e-05  421.73074      302            105.43993     -0.01905741   
   5096000   0.52843744     0.011515169   -0.053398559   -0.036125827    13429113       0.0010220713   0.0010570898   0.00098177308  0.0010273509   1.4396456e-05  421.73074      302            105.43993     -0.018718579  
   5097000   0.52843744     0.011472986   -0.053412688   -0.036203231    13429113       0.0010343338   0.0010534427   0.0010118981   0.0010376604  -1.6273859e-05  421.73074      302            105.43993     -0.018587137  
   5098000   0.52843744     0.011486495   -0.053448385   -0.036218664    13429113       0.00097856652  0.0010227389   0.00091742969  0.00099553098 -1.1807654e-05  421.73074      302            105.43993     -0.019552361  
   5099000   0.52843744     0.011486457   -0.053456304   -0.03622664     13429113       0.00099323126  0.0010052106   0.00095611791  0.0010183653  -1.544537e-05   421.73074      302            105.43993     -0.019310577  
   5100000   0.52843744     0.011498776   -0.053466033   -0.03621789     13429113       0.0010222715   0.0010478678   0.00097161327  0.0010473335  -9.6760608e-06  421.73074      302            105.43993     -0.018807232  
Loop time of 37.6483 on 32 procs for 10000 steps with 788494 atoms

Performance: 114746.351 tau/day, 265.617 timesteps/s
92.3% CPU use with 32 MPI tasks x no OpenMP threads

MPI task timing breakdown:
Section |  min time  |  avg time  |  max time  |%varavg| %total
---------------------------------------------------------------
Pair    | 4.0265     | 6.4136     | 12.525     |  88.4 | 17.04
Neigh   | 0.039411   | 0.055379   | 0.091573   |   5.3 |  0.15
Comm    | 7.5139     | 8.9249     | 9.7631     |  18.6 | 23.71
Output  | 0.27967    | 0.28013    | 0.2804     |   0.0 |  0.74
Modify  | 15.735     | 21.489     | 23.741     |  46.2 | 57.08
Other   |            | 0.4852     |            |       |  1.29

Nlocal:        24640.4 ave       24856 max       24426 min
Histogram: 1 2 5 3 5 5 6 2 1 2
Nghost:        8519.81 ave        9159 max        7854 min
Histogram: 12 4 0 0 0 0 0 0 1 15
Neighs:              0 ave           0 max           0 min
Histogram: 32 0 0 0 0 0 0 0 0 0
FullNghs:       423555 ave      438913 max      407513 min
Histogram: 2 6 6 2 0 1 0 5 6 4

Total # of neighbors = 13553772
Ave neighs/atom = 17.189442
Neighbor list builds = 71
Dangerous builds = 0
group zerog variable zerov
17581 atoms in group zerog
group todel intersect linker zerog
0 atoms in group todel
delete_atoms group todel
Deleted 0 atoms, new total = 788494
group zerog delete
group todel delete
velocity all create ${tlow} ${rand1}
velocity all create 0.0115 ${rand1}
velocity all create 0.0115 804711
Generated 0 of 28 mixed pair_coeff terms from geometric mixing rule
Per MPI rank memory allocation (min/avg/max) = 24.88 | 29.75 | 37.57 Mbytes
   Step        Density          Temp          PotEng         TotEng         Volume         Press           Pxx            Pyy            Pzz            Pxz             Lx             Ly             Lz          Enthalpy   
   5100000   0.52843744     0.0115        -0.053466033   -0.036216054    13429113       0.0010223434   0.0010500695   0.00096904592  0.0010479146  -7.5273184e-06  421.73074      302            105.43993     -0.018804173  
   5101000   0.52843744     0.011488686   -0.053466586   -0.036233579    13429113       0.00097404402  0.0010080696   0.000918286    0.00099577648 -2.809293e-06   421.73074      302            105.43993     -0.0196443    
   5102000   0.52843744     0.011492722   -0.053421682   -0.03618262     13429113       0.0010637413   0.0010631701   0.0010403219   0.0010877318  -9.7912856e-06  421.73074      302            105.43993     -0.018065676  
   5103000   0.52843744     0.011519647   -0.053397222   -0.036117773    13429113       0.001013645    0.0010197805   0.00097859052  0.0010425641   1.5566373e-05  421.73074      302            105.43993     -0.018854036  
   5104000   0.52843744     0.01150363    -0.053444141   -0.036188717    13429113       0.0010151262   0.0010289411   0.00097474593  0.0010416915   7.1087092e-07  421.73074      302            105.43993     -0.018899754  
   5105000   0.52843744     0.011486483   -0.053437773   -0.036208071    13429113       0.0010070326   0.0010274435   0.00096794744  0.0010257069   2.500011e-05   421.73074      302            105.43993     -0.019056952  
   5106000   0.52843744     0.011504649   -0.053427181   -0.036170229    13429113       0.0010321246   0.0010365328   0.00099382961  0.0010660114   7.405133e-06   421.73074      302            105.43993     -0.01859176   
   5107000   0.52843744     0.01149426    -0.05343982    -0.036198451    13429113       0.0010111073   0.0010413937   0.00095142793  0.0010405002  -7.6703103e-06  421.73074      302            105.43993     -0.018977935  
   5108000   0.52843744     0.011487651   -0.053469651   -0.036238197    13429113       0.0010026403   0.0010205944   0.00095916757  0.001028159    1.2003613e-05  421.73074      302            105.43993     -0.019161884  
   5109000   0.52843744     0.011500717   -0.053471905   -0.036220852    13429113       0.0010117753   0.0010286802   0.00096307319  0.0010435724  -7.797686e-06   421.73074      302            105.43993     -0.018988959  
   5110000   0.52843744     0.011496307   -0.05349153    -0.03624709     13429113       0.00102122     0.0010541155   0.00097398743  0.0010355569   3.6938021e-06  421.73074      302            105.43993     -0.018854342  
Loop time of 36.1728 on 32 procs for 10000 steps with 788494 atoms

Performance: 119426.741 tau/day, 276.451 timesteps/s
92.4% CPU use with 32 MPI tasks x no OpenMP threads

MPI task timing breakdown:
Section |  min time  |  avg time  |  max time  |%varavg| %total
---------------------------------------------------------------
Pair    | 3.7671     | 6.4906     | 13.171     |  95.9 | 17.94
Neigh   | 0.039178   | 0.054905   | 0.095291   |   5.0 |  0.15
Comm    | 6.5434     | 8.3247     | 9.0395     |  18.9 | 23.01
Output  | 0.028021   | 0.028158   | 0.028381   |   0.0 |  0.08
Modify  | 14.686     | 20.823     | 23.21      |  49.5 | 57.56
Other   |            | 0.4516     |            |       |  1.25

Nlocal:        24640.4 ave       24836 max       24489 min
Histogram: 2 3 3 5 6 7 3 0 2 1
Nghost:        8515.34 ave        9191 max        7806 min
Histogram: 9 7 0 0 0 0 0 0 3 13
Neighs:              0 ave           0 max           0 min
Histogram: 32 0 0 0 0 0 0 0 0 0
FullNghs:       422990 ave      440241 max      408701 min
Histogram: 7 5 4 0 0 1 4 5 3 3

Total # of neighbors = 13535682
Ave neighs/atom = 17.1665
Neighbor list builds = 72
Dangerous builds = 0
group zerog variable zerov
17580 atoms in group zerog
group todel intersect linker zerog
0 atoms in group todel
delete_atoms group todel
Deleted 0 atoms, new total = 788494
group zerog delete
group todel delete
velocity all create ${tlow} ${rand1}
velocity all create 0.0115 ${rand1}
velocity all create 0.0115 3179943
Generated 0 of 28 mixed pair_coeff terms from geometric mixing rule
Per MPI rank memory allocation (min/avg/max) = 24.88 | 29.75 | 37.57 Mbytes
   Step        Density          Temp          PotEng         TotEng         Volume         Press           Pxx            Pyy            Pzz            Pxz             Lx             Ly             Lz          Enthalpy   
   5110000   0.52843744     0.0115        -0.05349153    -0.036241552    13429113       0.0010214368   0.0010554245   0.00097077426  0.0010381115   3.0408618e-06  421.73074      302            105.43993     -0.01884511   
   5111000   0.52843744     0.011490565   -0.053475902   -0.036240077    13429113       0.0009721558   0.00098016914  0.0009206905   0.0010156078  -1.9811102e-05  421.73074      302            105.43993     -0.019682957  
   5112000   0.52843744     0.011493108   -0.053442787   -0.036203147    13429113       0.001048003    0.0010611806   0.00099760221  0.0010852262   2.3641641e-05  421.73074      302            105.43993     -0.018354247  
   5113000   0.52843744     0.011481205   -0.053429917   -0.036208132    13429113       0.00098845898  0.0010044709   0.00094325662  0.0010176494  -7.9339485e-06  421.73074      302            105.43993     -0.019373347  
   5114000   0.52843744     0.011485668   -0.053451416   -0.036222935    13429113       0.0010153176   0.0010181569   0.00095254373  0.0010752521  -1.3913535e-05  421.73074      302            105.43993     -0.018930712  
   5115000   0.52843744     0.011499983   -0.053451269   -0.036201316    13429113       0.00098912664  0.00099666923  0.00095084795  0.0010198627   2.4369862e-05  421.73074      302            105.43993     -0.01935516   
   5116000   0.52843744     0.011500776   -0.05346203    -0.036210888    13429113       0.0010185907   0.0010368646   0.00096281456  0.0010560928  -3.7516805e-05  421.73074      302            105.43993     -0.018862919  
   5117000   0.52843744     0.01151092    -0.053474181   -0.036207822    13429113       0.0010017236   0.0010256325   0.00096930978  0.0010102286   5.7011527e-06  421.73074      302            105.43993     -0.019147123  
   5118000   0.52843744     0.011503528   -0.05346651    -0.036211239    13429113       0.0010099726   0.0010195226   0.00095867642  0.0010517188   2.1336055e-05  421.73074      302            105.43993     -0.019010048  
   5119000   0.52843744     0.011502174   -0.053492618   -0.036239379    13429113       0.0010036037   0.0010063944   0.00096719809  0.0010372186   2.471493e-06   421.73074      302            105.43993     -0.019146659  
   5120000   0.52843744     0.011490711   -0.053497864   -0.03626182     13429113       0.00098293212  0.001007766    0.00093883136  0.001002199    2.221392e-05   421.73074      302            105.43993     -0.019521165  
Loop time of 37.7131 on 32 procs for 10000 steps with 788494 atoms

Performance: 114548.975 tau/day, 265.160 timesteps/s
92.7% CPU use with 32 MPI tasks x no OpenMP threads

MPI task timing breakdown:
Section |  min time  |  avg time  |  max time  |%varavg| %total
---------------------------------------------------------------
Pair    | 2.3413     | 6.0769     | 12.651     |  97.8 | 16.11
Neigh   | 0.036204   | 0.052491   | 0.090022   |   5.2 |  0.14
Comm    | 6.316      | 7.7145     | 8.6974     |  21.0 | 20.46
Output  | 0.027495   | 0.027597   | 0.027795   |   0.0 |  0.07
Modify  | 18.265     | 23.401     | 26.706     |  43.6 | 62.05
Other   |            | 0.4409     |            |       |  1.17

Nlocal:        24640.4 ave       24834 max       24474 min
Histogram: 3 1 2 8 6 4 3 2 0 3
Nghost:           8527 ave        9188 max        7864 min
Histogram: 13 3 0 0 0 0 0 0 2 14
Neighs:              0 ave           0 max           0 min
Histogram: 32 0 0 0 0 0 0 0 0 0
FullNghs:       422378 ave      438708 max      407551 min
Histogram: 3 9 4 0 0 0 1 7 5 3

Total # of neighbors = 13516098
Ave neighs/atom = 17.141662
Neighbor list builds = 69
Dangerous builds = 0
group zerog variable zerov
17576 atoms in group zerog
group todel intersect linker zerog
0 atoms in group todel
delete_atoms group todel
Deleted 0 atoms, new total = 788494
group zerog delete
group todel delete
velocity all create ${tlow} ${rand1}
velocity all create 0.0115 ${rand1}
velocity all create 0.0115 5505107
Generated 0 of 28 mixed pair_coeff terms from geometric mixing rule
Per MPI rank memory allocation (min/avg/max) = 24.88 | 29.75 | 37.57 Mbytes
   Step        Density          Temp          PotEng         TotEng         Volume         Press           Pxx            Pyy            Pzz            Pxz             Lx             Ly             Lz          Enthalpy   
   5120000   0.52843744     0.0115        -0.053497864   -0.036247886    13429113       0.00098347754  0.0010102914   0.00093798131  0.0010021599   2.0935096e-05  421.73074      302            105.43993     -0.019497941  
   5121000   0.52843744     0.011485021   -0.053502722   -0.036275212    13429113       0.00096402275  0.00098603649  0.00091726572  0.00098876604  2.8607978e-07  421.73074      302            105.43993     -0.019856609  
   5122000   0.52843744     0.011494826   -0.053480316   -0.036238098    13429113       0.0010716383   0.0011008344   0.0010262026   0.0010878778   2.5165995e-06  421.73074      302            105.43993     -0.017986658  
   5123000   0.52843744     0.011522355   -0.053450632   -0.036167122    13429113       0.00099497914  0.0010316933   0.00094419806  0.0010090461  -6.3267658e-06  421.73074      302            105.43993     -0.01922129   
   5124000   0.52843744     0.011527625   -0.053477724   -0.036186308    13429113       0.0010231191   0.0010605856   0.00097222299  0.0010365487   6.9007849e-06  421.73074      302            105.43993     -0.018761214  
   5125000   0.52843744     0.011505386   -0.053486685   -0.036228628    13429113       0.0010020768   0.0010401515   0.00095628535  0.0010097934   2.0218877e-05  421.73074      302            105.43993     -0.019161914  
   5126000   0.52843744     0.011492943   -0.053473314   -0.036233922    13429113       0.0010232822   0.0010425538   0.00099660084  0.0010306919  -1.3927521e-05  421.73074      302            105.43993     -0.018806051  
   5127000   0.52843744     0.011506204   -0.053468839   -0.036209556    13429113       0.0010227426   0.0010495524   0.00097525475  0.0010434205   8.9261449e-06  421.73074      302            105.43993     -0.018790875  
   5128000   0.52843744     0.011505801   -0.053504995   -0.036246316    13429113       0.0010051296   0.0010197647   0.00095506538  0.0010405585  -2.8666321e-05  421.73074      302            105.43993     -0.019127608  
   5129000   0.52843744     0.011510735   -0.053525442   -0.036259361    13429113       0.00098226099  0.0010098997   0.00093619483  0.0010006884  -7.2108945e-06  421.73074      302            105.43993     -0.019530137  
   5130000   0.52843744     0.011499097   -0.053539722   -0.036291099    13429113       0.00099125157  0.00099743333  0.00094218144  0.0010341399  -1.993385e-05   421.73074      302            105.43993     -0.019408752  
Loop time of 35.0538 on 32 procs for 10000 steps with 788494 atoms

Performance: 123239.100 tau/day, 285.276 timesteps/s
92.0% CPU use with 32 MPI tasks x no OpenMP threads

MPI task timing breakdown:
Section |  min time  |  avg time  |  max time  |%varavg| %total
---------------------------------------------------------------
Pair    | 2.3865     | 6.3688     | 13.158     | 102.2 | 18.17
Neigh   | 0.03627    | 0.052146   | 0.083055   |   5.2 |  0.15
Comm    | 6.4904     | 7.7618     | 8.6549     |  18.3 | 22.14
Output  | 0.026501   | 0.026635   | 0.026888   |   0.0 |  0.08
Modify  | 13.988     | 20.401     | 23.527     |  54.8 | 58.20
Other   |            | 0.4438     |            |       |  1.27

Nlocal:        24640.4 ave       24879 max       24487 min
Histogram: 3 2 8 8 3 2 1 3 0 2
Nghost:        8530.84 ave        9260 max        7827 min
Histogram: 13 3 0 0 0 0 0 0 6 10
Neighs:              0 ave           0 max           0 min
Histogram: 32 0 0 0 0 0 0 0 0 0
FullNghs:       421984 ave      438970 max      406799 min
Histogram: 7 6 3 0 0 1 1 4 7 3

Total # of neighbors = 13503492
Ave neighs/atom = 17.125675
Neighbor list builds = 69
Dangerous builds = 0
group zerog variable zerov
17579 atoms in group zerog
group todel intersect linker zerog
0 atoms in group todel
delete_atoms group todel
Deleted 0 atoms, new total = 788494
group zerog delete
group todel delete
velocity all create ${tlow} ${rand1}
velocity all create 0.0115 ${rand1}
velocity all create 0.0115 5843359
Generated 0 of 28 mixed pair_coeff terms from geometric mixing rule
Per MPI rank memory allocation (min/avg/max) = 24.88 | 29.75 | 37.57 Mbytes
   Step        Density          Temp          PotEng         TotEng         Volume         Press           Pxx            Pyy            Pzz            Pxz             Lx             Ly             Lz          Enthalpy   
   5130000   0.52843744     0.0115        -0.053539722   -0.036289744    13429113       0.00099130462  0.00099822563  0.00094188023  0.001033808   -1.8722958e-05  421.73074      302            105.43993     -0.019406494  
   5131000   0.52843744     0.011494051   -0.053523073   -0.036282019    13429113       0.00096762207  0.0010009739   0.0009261757   0.00097571661 -2.1840498e-05  421.73074      302            105.43993     -0.019802114  
   5132000   0.52843744     0.01149917    -0.053486466   -0.036237733    13429113       0.0010421163   0.0010654242   0.0010033303   0.0010575944   7.5443007e-06  421.73074      302            105.43993     -0.018489091  
   5133000   0.52843744     0.011501353   -0.05347246    -0.036220453    13429113       0.00098324373  0.0010399213   0.00093334818  0.0009764617   5.3165986e-06  421.73074      302            105.43993     -0.01947449   
   5134000   0.52843744     0.011507078   -0.053508407   -0.036247812    13429113       0.0010519077   0.0011182692   0.0009817613   0.0010556925  -1.6276819e-06  421.73074      302            105.43993     -0.01833241   
   5135000   0.52843744     0.011489885   -0.053522527   -0.036287722    13429113       0.00098986887  0.0010266262   0.00095312049  0.00098985987 -7.3453694e-06  421.73074      302            105.43993     -0.019428925  
   5136000   0.52843744     0.011507676   -0.053521098   -0.036259606    13429113       0.00098047744  0.0010008966   0.0009476322   0.00099290353 -6.0488035e-06  421.73074      302            105.43993     -0.019560757  
   5137000   0.52843744     0.011501509   -0.053531439   -0.036279197    13429113       0.0010113895   0.0010484832   0.00094721056  0.0010384748  -6.5968229e-07  421.73074      302            105.43993     -0.019053874  
   5138000   0.52843744     0.01151267    -0.053513314   -0.036244332    13429113       0.0010093447   0.001041576    0.0009500399   0.0010364181  -1.2920342e-05  421.73074      302            105.43993     -0.019053835  
   5139000   0.52843744     0.011494465   -0.053549316   -0.036307641    13429113       0.00099195753  0.0010302401   0.00093956384  0.0010060687  -2.9216502e-06  421.73074      302            105.43993     -0.019413271  
   5140000   0.52843744     0.011482163   -0.053576794   -0.036353571    13429113       0.00096796017  0.00098045982  0.0009351115   0.00098830919  1.1318109e-05  421.73074      302            105.43993     -0.019867908  
Loop time of 34.7123 on 32 procs for 10000 steps with 788494 atoms

Performance: 124451.638 tau/day, 288.082 timesteps/s
92.3% CPU use with 32 MPI tasks x no OpenMP threads

MPI task timing breakdown:
Section |  min time  |  avg time  |  max time  |%varavg| %total
---------------------------------------------------------------
Pair    | 2.5086     | 6.322      | 12.934     | 103.5 | 18.21
Neigh   | 0.034922   | 0.05081    | 0.089819   |   5.7 |  0.15
Comm    | 6.2917     | 7.9228     | 8.8175     |  19.2 | 22.82
Output  | 0.028363   | 0.028545   | 0.028754   |   0.0 |  0.08
Modify  | 13.519     | 19.947     | 22.903     |  55.2 | 57.46
Other   |            | 0.441      |            |       |  1.27

Nlocal:        24640.4 ave       24864 max       24510 min
Histogram: 3 4 10 5 2 1 4 0 1 2
Nghost:        8535.22 ave        9266 max        7843 min
Histogram: 12 4 0 0 0 0 0 0 7 9
Neighs:              0 ave           0 max           0 min
Histogram: 32 0 0 0 0 0 0 0 0 0
FullNghs:       421586 ave      440156 max      406442 min
Histogram: 7 7 2 0 0 1 1 9 2 3

Total # of neighbors = 13490738
Ave neighs/atom = 17.1095
Neighbor list builds = 67
Dangerous builds = 0
group zerog variable zerov
17576 atoms in group zerog
group todel intersect linker zerog
0 atoms in group todel
delete_atoms group todel
Deleted 0 atoms, new total = 788494
group zerog delete
group todel delete
velocity all create ${tlow} ${rand1}
velocity all create 0.0115 ${rand1}
velocity all create 0.0115 3807451
Generated 0 of 28 mixed pair_coeff terms from geometric mixing rule
Per MPI rank memory allocation (min/avg/max) = 24.88 | 29.75 | 37.57 Mbytes
   Step        Density          Temp          PotEng         TotEng         Volume         Press           Pxx            Pyy            Pzz            Pxz             Lx             Ly             Lz          Enthalpy   
   5140000   0.52843744     0.0115        -0.053576794   -0.036326816    13429113       0.00096900746  0.0009819562   0.00093596477  0.00098910142  1.2892303e-05  421.73074      302            105.43993     -0.019823316  
[...]
   6957000   0.52843744     0.011510334   -0.054097998   -0.036832518    13429113       0.00084280417  0.0008737992   0.00073582392  0.00091878939  1.4714791e-05  421.73074      302            105.43993     -0.02247843   
   6958000   0.52843744     0.011488987   -0.054094642   -0.036861184    13429113       0.00084472995  0.00089157363  0.00074276446  0.00089985177 -5.455451e-06   421.73074      302            105.43993     -0.022474297  
   6959000   0.52843744     0.011499538   -0.054097133   -0.036847849    13429113       0.00086112485  0.00092221178  0.00075880889  0.00090235388  4.7473739e-06  421.73074      302            105.43993     -0.022181735  
   6960000   0.52843744     0.011531014   -0.054109211   -0.036812713    13429113       0.0008450912   0.00088449411  0.00075787474  0.00089290476 -1.0513205e-05  421.73074      302            105.43993     -0.022419674  
Loop time of 23.9245 on 32 procs for 10000 steps with 788494 atoms

Performance: 180567.765 tau/day, 417.981 timesteps/s
88.7% CPU use with 32 MPI tasks x no OpenMP threads

MPI task timing breakdown:
Section |  min time  |  avg time  |  max time  |%varavg| %total
---------------------------------------------------------------
Pair    | 1.9209     | 4.9351     | 7.1268     |  67.2 | 20.63
Neigh   | 0.031041   | 0.040898   | 0.051942   |   3.2 |  0.17
Comm    | 5.4575     | 6.0853     | 6.9072     |  13.1 | 25.44
Output  | 0.022767   | 0.022789   | 0.022973   |   0.0 |  0.10
Modify  | 10.442     | 12.497     | 15.168     |  38.1 | 52.24
Other   |            | 0.343      |            |       |  1.43

Nlocal:        24640.4 ave       25075 max       24171 min
Histogram: 4 3 7 2 0 0 1 4 4 7
Nghost:        8543.56 ave        9382 max        7678 min
Histogram: 15 1 0 0 0 0 0 0 1 15
Neighs:              0 ave           0 max           0 min
Histogram: 32 0 0 0 0 0 0 0 0 0
FullNghs:       389738 ave      424689 max      354196 min
Histogram: 16 0 0 0 0 0 0 0 3 13

Total # of neighbors = 12471600
Ave neighs/atom = 15.816988
Neighbor list builds = 60
Dangerous builds = 0
group zerog variable zerov
17578 atoms in group zerog
group todel intersect linker zerog
0 atoms in group todel
delete_atoms group todel
Deleted 0 atoms, new total = 788494
group zerog delete
group todel delete
velocity all create ${tlow} ${rand1}
velocity all create 0.0115 ${rand1}
velocity all create 0.0115 4690089
Generated 0 of 28 mixed pair_coeff terms from geometric mixing rule
Per MPI rank memory allocation (min/avg/max) = 24.88 | 29.75 | 37.57 Mbytes
   Step        Density          Temp          PotEng         TotEng         Volume         Press           Pxx            Pyy            Pzz            Pxz             Lx             Ly             Lz          Enthalpy   
   6960000   0.52843744     0.0115        -0.054109211   -0.036859233    13429113       0.00084327023  0.00088259472  0.00075578782  0.00089142816 -8.8261136e-06  421.73074      302            105.43993     -0.022497208  
   6961000   0.52843744     0.011489105   -0.054107321   -0.036873685    13429113       0.00079939989  0.00083606092  0.00070549567  0.00085664308  3.4266312e-07  421.73074      302            105.43993     -0.02325883   
   6962000   0.52843744     0.011492192   -0.054084551   -0.036846285    13429113       0.00088355858  0.00092447646  0.0008041868   0.00092201248  8.3843803e-06  421.73074      302            105.43993     -0.021798095  
   6963000   0.52843744     0.011494692   -0.05408086    -0.036838843    13429113       0.00082306361  0.00088175907  0.00072265602  0.00086477573  1.1132987e-05  421.73074      302            105.43993     -0.022820964  
   6964000   0.52843744     0.011496548   -0.054088192   -0.036843391    13429113       0.00086338968  0.00091710786  0.00075264564  0.00092041554 -1.0246668e-05  421.73074      302            105.43993     -0.022138704  
   6965000   0.52843744     0.011471268   -0.054085638   -0.036878757    13429113       0.00084299588  0.00089653215  0.00074003264  0.00089242285  8.6514859e-07  421.73074      302            105.43993     -0.022521404  
   6966000   0.52843744     0.011505001   -0.054092832   -0.036835352    13429113       0.00084595108  0.00087803179  0.0007531523   0.00090666916 -4.9005293e-06  421.73074      302            105.43993     -0.022427668  
   6967000   0.52843744     0.011500098   -0.054114348   -0.036864222    13429113       0.00085689338  0.00090137102  0.00075239499  0.00091691413  1.6386614e-05  421.73074      302            105.43993     -0.022270176  
   6968000   0.52843744     0.011492925   -0.054116621   -0.036877256    13429113       0.00083126867  0.00088875994  0.00073623013  0.00086881593  1.2508144e-05  421.73074      302            105.43993     -0.022719633  
   6969000   0.52843744     0.011498905   -0.054091551   -0.036843216    13429113       0.0008472265   0.00089219689  0.00076300883  0.00088647379  6.7167574e-06  421.73074      302            105.43993     -0.022413809  
   6970000   0.52843744     0.011528777   -0.054097153   -0.036804009    13429113       0.00084365895  0.00087993762  0.00074748083  0.0009035584  -1.809623e-05   421.73074      302            105.43993     -0.022435363  
Loop time of 23.9466 on 32 procs for 10000 steps with 788494 atoms

Performance: 180401.110 tau/day, 417.595 timesteps/s
88.5% CPU use with 32 MPI tasks x no OpenMP threads

MPI task timing breakdown:
Section |  min time  |  avg time  |  max time  |%varavg| %total
---------------------------------------------------------------
Pair    | 1.9114     | 4.9101     | 7.1343     |  67.5 | 20.50
Neigh   | 0.030976   | 0.040898   | 0.052185   |   3.3 |  0.17
Comm    | 5.5018     | 6.1293     | 6.936      |  13.0 | 25.60
Output  | 0.02747    | 0.032573   | 0.032921   |   0.5 |  0.14
Modify  | 10.391     | 12.486     | 15.137     |  38.4 | 52.14
Other   |            | 0.3478     |            |       |  1.45

Nlocal:        24640.4 ave       25066 max       24191 min
Histogram: 7 0 8 1 0 0 0 3 7 6
Nghost:        8543.19 ave        9385 max        7724 min
Histogram: 15 1 0 0 0 0 0 0 1 15
Neighs:              0 ave           0 max           0 min
Histogram: 32 0 0 0 0 0 0 0 0 0
FullNghs:       389694 ave      425864 max      355556 min
Histogram: 16 0 0 0 0 0 0 0 6 10

Total # of neighbors = 12470200
Ave neighs/atom = 15.815212
Neighbor list builds = 60
Dangerous builds = 0
group zerog variable zerov
17578 atoms in group zerog
group todel intersect linker zerog
0 atoms in group todel
delete_atoms group todel
Deleted 0 atoms, new total = 788494
group zerog delete
group todel delete
velocity all create ${tlow} ${rand1}
velocity all create 0.0115 ${rand1}
velocity all create 0.0115 9245445
Generated 0 of 28 mixed pair_coeff terms from geometric mixing rule
Per MPI rank memory allocation (min/avg/max) = 24.88 | 29.75 | 37.57 Mbytes
   Step        Density          Temp          PotEng         TotEng         Volume         Press           Pxx            Pyy            Pzz            Pxz             Lx             Ly             Lz          Enthalpy   
   6970000   0.52843744     0.0115        -0.054097153   -0.036847175    13429113       0.00084196928  0.00087799188  0.0007464909   0.00090142506 -1.7705409e-05  421.73074      302            105.43993     -0.022507307  
   6971000   0.52843744     0.011488953   -0.054104498   -0.036871091    13429113       0.00080876501  0.00085606111  0.00070130665  0.00086892727  1.8991501e-07  421.73074      302            105.43993     -0.023096735  
   6972000   0.52843744     0.011498999   -0.054094428   -0.036845951    13429113       0.00090504535  0.00093839544  0.0008126711   0.00096406952 -6.1997916e-06  421.73074      302            105.43993     -0.021431812  
   6973000   0.52843744     0.011508949   -0.054068772   -0.03680537     13429113       0.00081450903  0.00087232362  0.00071309289  0.00085811056 -8.0219911e-06  421.73074      302            105.43993     -0.022933186  
   6974000   0.52843744     0.011501306   -0.054094924   -0.036842987    13429113       0.00088273216  0.00094449926  0.00081121645  0.00089248078  5.8328879e-06  421.73074      302            105.43993     -0.021808871  
   6975000   0.52843744     0.011513469   -0.054094765   -0.036824584    13429113       0.00084095975  0.00089136025  0.00074247727  0.00088904174 -2.6686719e-06  421.73074      302            105.43993     -0.022501909  
   6976000   0.52843744     0.011506281   -0.054094148   -0.036834749    13429113       0.00085446277  0.00090069094  0.00076425787  0.0008984395  -3.3501809e-06  421.73074      302            105.43993     -0.0222821    
   6977000   0.52843744     0.011509723   -0.054105232   -0.03684067     13429113       0.00084256953  0.00089480248  0.00073326388  0.00089964222  4.0929156e-06  421.73074      302            105.43993     -0.022490578  
   6978000   0.52843744     0.011498425   -0.054119451   -0.036871836    13429113       0.00083077981  0.00087355696  0.00072618588  0.00089259657  6.2182698e-06  421.73074      302            105.43993     -0.022722539  
   6979000   0.52843744     0.011499377   -0.054098426   -0.036849383    13429113       0.00083862254  0.00088145208  0.00073589344  0.00089852212  2.5617249e-06  421.73074      302            105.43993     -0.022566514  
   6980000   0.52843744     0.011500203   -0.054103495   -0.036853213    13429113       0.00085152887  0.00091721124  0.00075438753  0.00088298784 -6.9728401e-06  421.73074      302            105.43993     -0.022350532  
Loop time of 23.9297 on 32 procs for 10000 steps with 788494 atoms

Performance: 180528.803 tau/day, 417.891 timesteps/s
88.7% CPU use with 32 MPI tasks x no OpenMP threads

MPI task timing breakdown:
Section |  min time  |  avg time  |  max time  |%varavg| %total
---------------------------------------------------------------
Pair    | 1.9242     | 4.9006     | 7.0528     |  66.9 | 20.48
Neigh   | 0.031053   | 0.041044   | 0.052054   |   3.2 |  0.17
Comm    | 5.4874     | 6.1347     | 6.9681     |  13.1 | 25.64
Output  | 0.023072   | 0.023093   | 0.023303   |   0.0 |  0.10
Modify  | 10.373     | 12.48      | 15.152     |  38.1 | 52.15
Other   |            | 0.3507     |            |       |  1.47

Nlocal:        24640.4 ave       25064 max       24197 min
Histogram: 7 2 6 1 0 0 1 3 5 7
Nghost:        8544.66 ave        9415 max        7678 min
Histogram: 12 4 0 0 0 0 0 0 2 14
Neighs:              0 ave           0 max           0 min
Histogram: 32 0 0 0 0 0 0 0 0 0
FullNghs:       389406 ave      424933 max      355659 min
Histogram: 16 0 0 0 0 0 0 0 5 11

Total # of neighbors = 12460976
Ave neighs/atom = 15.803514
Neighbor list builds = 60
Dangerous builds = 0
group zerog variable zerov
17579 atoms in group zerog
group todel intersect linker zerog
0 atoms in group todel
delete_atoms group todel
Deleted 0 atoms, new total = 788494
group zerog delete
group todel delete
velocity all create ${tlow} ${rand1}
velocity all create 0.0115 ${rand1}
velocity all create 0.0115 2461378
Generated 0 of 28 mixed pair_coeff terms from geometric mixing rule
Per MPI rank memory allocation (min/avg/max) = 24.88 | 29.75 | 37.57 Mbytes
   Step        Density          Temp          PotEng         TotEng         Volume         Press           Pxx            Pyy            Pzz            Pxz             Lx             Ly             Lz          Enthalpy   
   6980000   0.52843744     0.0115        -0.054103495   -0.036853517    13429113       0.00085151697  0.00091831125  0.00075297275  0.0008832669  -8.4347945e-06  421.73074      302            105.43993     -0.022351038  
   6981000   0.52843744     0.011491646   -0.05409504    -0.036857593    13429113       0.00082680815  0.00085935627  0.00073847109  0.00088259709  6.9805388e-06  421.73074      302            105.43993     -0.022775939  
   6982000   0.52843744     0.01148737    -0.054094778   -0.036863744    13429113       0.00089248568  0.00092391919  0.00080602826  0.00094750959  1.6189721e-06  421.73074      302            105.43993     -0.021663514  
   6983000   0.52843744     0.011512879   -0.054084734   -0.036815437    13429113       0.00081244507  0.00087997511  0.00070065236  0.00085670773  1.2601196e-06  421.73074      302            105.43993     -0.022978406  
   6984000   0.52843744     0.011497994   -0.054104569   -0.0368576      13429113       0.00084802079  0.0008897413   0.00074508568  0.0009092354  -5.3388074e-06  421.73074      302            105.43993     -0.022414666  
   6985000   0.52843744     0.011498017   -0.054089091   -0.036842087    13429113       0.00083986052  0.00089810969  0.00073926897  0.00088220289  2.4086046e-05  421.73074      302            105.43993     -0.022538133  
   6986000   0.52843744     0.011514471   -0.054099975   -0.036828291    13429113       0.00086009241  0.00093984388  0.00074555587  0.00089487748  3.6670673e-06  421.73074      302            105.43993     -0.022179761  
   6987000   0.52843744     0.011486154   -0.054105844   -0.036876635    13429113       0.00083593555  0.00088869955  0.00072940856  0.00088969855 -6.4693559e-07  421.73074      302            105.43993     -0.022639529  
   6988000   0.52843744     0.011503666   -0.054104087   -0.036848609    13429113       0.00084752842  0.00087983321  0.00075446687  0.00090828519 -3.9624763e-06  421.73074      302            105.43993     -0.022414061  
   6989000   0.52843744     0.011496182   -0.054085645   -0.036841394    13429113       0.00084870562  0.00088945132  0.00076781927  0.00088884628  1.6585204e-05  421.73074      302            105.43993     -0.022386797  
   6990000   0.52843744     0.011492892   -0.054087504   -0.036848189    13429113       0.00084915706  0.00089272491  0.00075116604  0.00090358023  1.4462121e-05  421.73074      302            105.43993     -0.022385902  
Loop time of 23.9711 on 32 procs for 10000 steps with 788494 atoms

Performance: 180216.723 tau/day, 417.168 timesteps/s
89.0% CPU use with 32 MPI tasks x no OpenMP threads

MPI task timing breakdown:
Section |  min time  |  avg time  |  max time  |%varavg| %total
---------------------------------------------------------------
Pair    | 1.939      | 4.9104     | 7.0182     |  66.7 | 20.48
Neigh   | 0.03243    | 0.041831   | 0.054136   |   3.3 |  0.17
Comm    | 5.5162     | 6.1213     | 6.9519     |  13.0 | 25.54
Output  | 0.02244    | 0.022463   | 0.022668   |   0.0 |  0.09
Modify  | 10.435     | 12.53      | 15.153     |  37.8 | 52.27
Other   |            | 0.3453     |            |       |  1.44

Nlocal:        24640.4 ave       25044 max       24143 min
Histogram: 3 4 5 4 0 0 0 1 6 9
Nghost:        8543.38 ave        9346 max        7684 min
Histogram: 12 4 0 0 0 0 0 0 0 16
Neighs:              0 ave           0 max           0 min
Histogram: 32 0 0 0 0 0 0 0 0 0
FullNghs:       389410 ave      424857 max      353970 min
Histogram: 16 0 0 0 0 0 0 0 3 13

Total # of neighbors = 12461110
Ave neighs/atom = 15.803684
Neighbor list builds = 61
Dangerous builds = 0
group zerog variable zerov
17580 atoms in group zerog
group todel intersect linker zerog
0 atoms in group todel
delete_atoms group todel
Deleted 0 atoms, new total = 788494
group zerog delete
group todel delete
velocity all create ${tlow} ${rand1}
velocity all create 0.0115 ${rand1}
velocity all create 0.0115 788720
Generated 0 of 28 mixed pair_coeff terms from geometric mixing rule
Per MPI rank memory allocation (min/avg/max) = 24.88 | 29.75 | 37.57 Mbytes
   Step        Density          Temp          PotEng         TotEng         Volume         Press           Pxx            Pyy            Pzz            Pxz             Lx             Ly             Lz          Enthalpy   
   6990000   0.52843744     0.0115        -0.054087504   -0.036837526    13429113       0.00084957443  0.00089125771  0.00075243465  0.00090503094  1.4586348e-05  421.73074      302            105.43993     -0.022368131  
   6991000   0.52843744     0.011497952   -0.054096022   -0.036849117    13429113       0.00081629447  0.00087301258  0.00071412004  0.0008617508  -5.7864352e-06  421.73074      302            105.43993     -0.022946525  
   6992000   0.52843744     0.011490379   -0.054089725   -0.036854179    13429113       0.00087643711  0.00092948759  0.00077093834  0.00092888539  1.1882333e-05  421.73074      302            105.43993     -0.021927277  
   6993000   0.52843744     0.011506965   -0.054093234   -0.036832808    13429113       0.0008204969   0.00086133076  0.0007339673   0.00086619263  7.7362416e-07  421.73074      302            105.43993     -0.022858643  
   6994000   0.52843744     0.011497704   -0.054116893   -0.036870358    13429113       0.0008433525   0.00088966306  0.00073236903  0.00090802542 -5.9874009e-06  421.73074      302            105.43993     -0.022506932  
   6995000   0.52843744     0.011509971   -0.05410784    -0.036842906    13429113       0.00082899505  0.00087313929  0.00074058498  0.00087326089  1.1073541e-05  421.73074      302            105.43993     -0.022724006  
   6996000   0.52843744     0.011499787   -0.054080268   -0.036830609    13429113       0.00085075307  0.00089480694  0.00076086413  0.00089658813 -2.7979088e-06  421.73074      302            105.43993     -0.022341141  
   6997000   0.52843744     0.011507523   -0.054088655   -0.036827391    13429113       0.00085151302  0.0008852167   0.00075016521  0.00091915714  1.3143767e-05  421.73074      302            105.43993     -0.02232498   
   6998000   0.52843744     0.011492509   -0.054112875   -0.036874133    13429113       0.00087304474  0.00090078749  0.00078486025  0.0009334865  -6.3304247e-07  421.73074      302            105.43993     -0.022005007  
   6999000   0.52843744     0.011492816   -0.054112012   -0.03687281     13429113       0.00083800933  0.00088795955  0.00074421897  0.00088184949  3.0986252e-06  421.73074      302            105.43993     -0.022600385  
   7000000   0.52843744     0.011500885   -0.054125795   -0.036874489    13429113       0.000842601    0.00088602228  0.00072937074  0.00091240998  6.2279868e-06  421.73074      302            105.43993     -0.022523861  
Loop time of 24.1554 on 32 procs for 10000 steps with 788494 atoms

Performance: 178842.239 tau/day, 413.987 timesteps/s
89.1% CPU use with 32 MPI tasks x no OpenMP threads

MPI task timing breakdown:
Section |  min time  |  avg time  |  max time  |%varavg| %total
---------------------------------------------------------------
Pair    | 1.9406     | 4.8896     | 7.0103     |  66.8 | 20.24
Neigh   | 0.031133   | 0.04152    | 0.054509   |   3.4 |  0.17
Comm    | 5.5177     | 6.1736     | 6.9838     |  13.0 | 25.56
Output  | 0.14286    | 0.1429     | 0.14307    |   0.0 |  0.59
Modify  | 10.454     | 12.565     | 15.205     |  37.8 | 52.02
Other   |            | 0.3429     |            |       |  1.42

Nlocal:        24640.4 ave       25082 max       24183 min
Histogram: 4 3 9 0 0 0 0 5 4 7
Nghost:        8535.88 ave        9405 max        7613 min
Histogram: 8 8 0 0 0 0 0 0 2 14
Neighs:              0 ave           0 max           0 min
Histogram: 32 0 0 0 0 0 0 0 0 0
FullNghs:       389390 ave      423995 max      352334 min
Histogram: 11 5 0 0 0 0 0 0 1 15

Total # of neighbors = 12460474
Ave neighs/atom = 15.802877
Neighbor list builds = 61
Dangerous builds = 0
group zerog variable zerov
17582 atoms in group zerog
group todel intersect linker zerog
0 atoms in group todel
delete_atoms group todel
Deleted 0 atoms, new total = 788494
group zerog delete
group todel delete
velocity all create ${tlow} ${rand1}
velocity all create 0.0115 ${rand1}
velocity all create 0.0115 9257818
unfix 1
undump dump_geo
write_restart restart_beforeimpact
System init for write_restart ...
Generated 0 of 28 mixed pair_coeff terms from geometric mixing rule

quit
